[ moleculetype ]
H2O2   1

[ atoms ]
1  O   1 H2O2 O1  1 -0.4 15.999
2  O   1 H2O2 O2  1 -0.4 15.999
3  H   1 H2O2 H1  1  0.4 1.008
4  H   1 H2O2 H2  1  0.4 1.008

[ bonds ]
1 2 1 0.147 300000
1 3 1 0.096 345000
2 4 1 0.096 345000

[ angles ]
3 1 2 1 101.0 460
1 2 4 1 101.0 460

[ dihedrals ]
3 1 2 4 1 111.0 2.0 3	
