; rosavin_GMX.itp created by acpype (v: 2023.10.27) on Wed May  6 11:19:01 2026
[ moleculetype ]
;name            nrexcl
 rosavin          3

[ atoms ]
;   nr  type  resi  res  atom  cgnr     charge      mass       ; qtot   bond_type
     1   c6     1   UNL     C    1     0.121100     12.01000 ; qtot 0.121
     2   c6     1   UNL    C1    2     0.072100     12.01000 ; qtot 0.193
     3   c6     1   UNL    C2    3     0.073100     12.01000 ; qtot 0.266
     4   c6     1   UNL    C3    4     0.130100     12.01000 ; qtot 0.396
     5   c6     1   UNL    C4    5     0.337900     12.01000 ; qtot 0.734
     6   c3     1   UNL    C5    6     0.139400     12.01000 ; qtot 0.874
     7   c6     1   UNL    C6    7     0.292900     12.01000 ; qtot 1.167
     8   c6     1   UNL    C7    8     0.096100     12.01000 ; qtot 1.263
     9   c6     1   UNL    C8    9     0.082100     12.01000 ; qtot 1.345
    10   c6     1   UNL    C9   10     0.080100     12.01000 ; qtot 1.425
    11   c6     1   UNL   C10   11     0.081400     12.01000 ; qtot 1.506
    12   c3     1   UNL   C11   12     0.130400     12.01000 ; qtot 1.637
    13   c3     1   UNL   C12   13    -0.088400     12.01000 ; qtot 1.548
    14   c3     1   UNL   C13   14    -0.072400     12.01000 ; qtot 1.476
    15   c6     1   UNL   C14   15    -0.063700     12.01000 ; qtot 1.412
    16   c6     1   UNL   C15   16    -0.073400     12.01000 ; qtot 1.339
    17   c6     1   UNL   C16   17    -0.073400     12.01000 ; qtot 1.265
    18   c6     1   UNL   C17   18    -0.076400     12.01000 ; qtot 1.189
    19   c6     1   UNL   C18   19    -0.076400     12.01000 ; qtot 1.113
    20   c6     1   UNL   C19   20    -0.076400     12.01000 ; qtot 1.036
    21   os     1   UNL     O   21    -0.441600     16.00000 ; qtot 0.595
    22   os     1   UNL    O1   22    -0.451600     16.00000 ; qtot 0.143
    23   os     1   UNL    O2   23    -0.441600     16.00000 ; qtot -0.299
    24   oh     1   UNL    O3   24    -0.585800     16.00000 ; qtot -0.884
    25   oh     1   UNL    O4   25    -0.598800     16.00000 ; qtot -1.483
    26   os     1   UNL    O5   26    -0.401600     16.00000 ; qtot -1.885
    27   oh     1   UNL    O6   27    -0.589800     16.00000 ; qtot -2.475
    28   oh     1   UNL    O7   28    -0.577800     16.00000 ; qtot -3.052
    29   oh     1   UNL    O8   29    -0.594800     16.00000 ; qtot -3.647
    30   oh     1   UNL    O9   30    -0.588800     16.00000 ; qtot -4.236
    31   hc     1   UNL   H01   31     0.049700      1.00800 ; qtot -4.186
    32   hc     1   UNL   H02   32     0.049200      1.00800 ; qtot -4.137
    33   hc     1   UNL   H03   33     0.056700      1.00800 ; qtot -4.080
    34   hc     1   UNL   H04   34     0.038950      1.00800 ; qtot -4.041
    35   hc     1   UNL   H05   35     0.038950      1.00800 ; qtot -4.003
    36   hc     1   UNL   H06   36     0.039450      1.00800 ; qtot -3.963
    37   hc     1   UNL   H07   37     0.039450      1.00800 ; qtot -3.924
    38   hc     1   UNL   H08   38     0.037700      1.00800 ; qtot -3.886
    39   h1     1   UNL     H   39     0.041700      1.00800 ; qtot -3.844
    40   h1     1   UNL    H1   40     0.122700      1.00800 ; qtot -3.722
    41   h1     1   UNL    H2   41     0.046700      1.00800 ; qtot -3.675
    42   h1     1   UNL    H3   42     0.084700      1.00800 ; qtot -3.590
    43   h2     1   UNL    H4   43     0.058700      1.00800 ; qtot -3.531
    44   h1     1   UNL    H5   44     0.062200      1.00800 ; qtot -3.469
    45   h1     1   UNL    H6   45     0.062200      1.00800 ; qtot -3.407
    46   h2     1   UNL    H7   46     0.091700      1.00800 ; qtot -3.315
    47   h1     1   UNL    H8   47     0.110700      1.00800 ; qtot -3.205
    48   h1     1   UNL    H9   48     0.101700      1.00800 ; qtot -3.103
    49   h1     1   UNL   H10   49     0.079700      1.00800 ; qtot -3.023
    50   h1     1   UNL   H11   50     0.077200      1.00800 ; qtot -2.946
    51   h1     1   UNL   H12   51     0.077200      1.00800 ; qtot -2.869
    52   ho     1   UNL   H13   52     0.399000      1.00800 ; qtot -2.470
    53   ho     1   UNL   H14   53     0.424000      1.00800 ; qtot -2.046
    54   ho     1   UNL   H15   54     0.425000      1.00800 ; qtot -1.621
    55   ho     1   UNL   H16   55     0.408000      1.00800 ; qtot -1.213
    56   ho     1   UNL   H17   56     0.427000      1.00800 ; qtot -0.786
    57   h1     1   UNL   H18   57     0.035200      1.00800 ; qtot -0.751
    58   h1     1   UNL   H19   58     0.035200      1.00800 ; qtot -0.715
    59   ho     1   UNL   H20   59     0.422000      1.00800 ; qtot -0.293
    60   hc     1   UNL   H21   60     0.049700      1.00800 ; qtot -0.244
    61   hc     1   UNL   H22   61     0.049200      1.00800 ; qtot -0.195
    62   hc     1   UNL   H23   62     0.038950      1.00800 ; qtot -0.156
    63   hc     1   UNL   H24   63     0.038950      1.00800 ; qtot -0.117
    64   hc     1   UNL   H25   64     0.039450      1.00800 ; qtot -0.077
    65   hc     1   UNL   H26   65     0.039450      1.00800 ; qtot -0.038
    66   hc     1   UNL   H27   66     0.037700      1.00800 ; qtot -0.000

[ bonds ]
;   ai     aj funct   r             k
     1      2   1    1.5384e-01    1.8979e+05 ;      C - C1    
     1      6   1    1.5428e-01    1.8728e+05 ;      C - C5    
     1     21   1    1.4300e-01    2.3412e+05 ;      C - O     
     1     39   1    1.0984e-01    2.8620e+05 ;      C - H     
     2      3   1    1.5384e-01    1.8979e+05 ;     C1 - C2    
     2     24   1    1.4241e-01    2.3870e+05 ;     C1 - O3    
     2     40   1    1.0984e-01    2.8620e+05 ;     C1 - H1    
     3      4   1    1.5384e-01    1.8979e+05 ;     C2 - C3    
     3     25   1    1.4241e-01    2.3870e+05 ;     C2 - O4    
     3     41   1    1.0984e-01    2.8620e+05 ;     C2 - H2    
     4      5   1    1.5384e-01    1.8979e+05 ;     C3 - C4    
     4     27   1    1.4241e-01    2.3870e+05 ;     C3 - O6    
     4     42   1    1.0984e-01    2.8620e+05 ;     C3 - H3    
     5     21   1    1.4300e-01    2.3412e+05 ;     C4 - O     
     5     26   1    1.4300e-01    2.3412e+05 ;     C4 - O5    
     5     43   1    1.0985e-01    2.8609e+05 ;     C4 - H4    
     6     22   1    1.4273e-01    2.3620e+05 ;     C5 - O1    
     6     44   1    1.0969e-01    2.8804e+05 ;     C5 - H5    
     6     45   1    1.0969e-01    2.8804e+05 ;     C5 - H6    
     7      8   1    1.5384e-01    1.8979e+05 ;     C6 - C7    
     7     22   1    1.4300e-01    2.3412e+05 ;     C6 - O1    
     7     23   1    1.4300e-01    2.3412e+05 ;     C6 - O2    
     7     46   1    1.0985e-01    2.8609e+05 ;     C6 - H7    
     8      9   1    1.5384e-01    1.8979e+05 ;     C7 - C8    
     8     28   1    1.4241e-01    2.3870e+05 ;     C7 - O7    
     8     47   1    1.0984e-01    2.8620e+05 ;     C7 - H8    
     9     10   1    1.5384e-01    1.8979e+05 ;     C8 - C9    
     9     29   1    1.4241e-01    2.3870e+05 ;     C8 - O8    
     9     48   1    1.0984e-01    2.8620e+05 ;     C8 - H9    
    10     11   1    1.5384e-01    1.8979e+05 ;     C9 - C10   
    10     30   1    1.4241e-01    2.3870e+05 ;     C9 - O9    
    10     49   1    1.0984e-01    2.8620e+05 ;     C9 - H10   
    11     23   1    1.4300e-01    2.3412e+05 ;    C10 - O2    
    11     50   1    1.0984e-01    2.8620e+05 ;    C10 - H11   
    11     51   1    1.0984e-01    2.8620e+05 ;    C10 - H12   
    12     13   1    1.5354e-01    1.9154e+05 ;    C11 - C12   
    12     26   1    1.4273e-01    2.3620e+05 ;    C11 - O5    
    12     57   1    1.0969e-01    2.8804e+05 ;    C11 - H18   
    12     58   1    1.0969e-01    2.8804e+05 ;    C11 - H19   
    13     14   1    1.5354e-01    1.9154e+05 ;    C12 - C13   
    13     31   1    1.0962e-01    2.8891e+05 ;    C12 - H01   
    13     60   1    1.0962e-01    2.8891e+05 ;    C12 - H21   
    14     15   1    1.5428e-01    1.8728e+05 ;    C13 - C14   
    14     32   1    1.0962e-01    2.8891e+05 ;    C13 - H02   
    14     61   1    1.0962e-01    2.8891e+05 ;    C13 - H22   
    15     16   1    1.5384e-01    1.8979e+05 ;    C14 - C15   
    15     17   1    1.5384e-01    1.8979e+05 ;    C14 - C16   
    15     33   1    1.0979e-01    2.8681e+05 ;    C14 - H03   
    16     18   1    1.5384e-01    1.8979e+05 ;    C15 - C17   
    16     34   1    1.0979e-01    2.8681e+05 ;    C15 - H04   
    16     62   1    1.0979e-01    2.8681e+05 ;    C15 - H23   
    17     19   1    1.5384e-01    1.8979e+05 ;    C16 - C18   
    17     35   1    1.0979e-01    2.8681e+05 ;    C16 - H05   
    17     63   1    1.0979e-01    2.8681e+05 ;    C16 - H24   
    18     20   1    1.5384e-01    1.8979e+05 ;    C17 - C19   
    18     36   1    1.0979e-01    2.8681e+05 ;    C17 - H06   
    18     64   1    1.0979e-01    2.8681e+05 ;    C17 - H25   
    19     20   1    1.5384e-01    1.8979e+05 ;    C18 - C19   
    19     37   1    1.0979e-01    2.8681e+05 ;    C18 - H07   
    19     65   1    1.0979e-01    2.8681e+05 ;    C18 - H26   
    20     38   1    1.0979e-01    2.8681e+05 ;    C19 - H08   
    20     66   1    1.0979e-01    2.8681e+05 ;    C19 - H27   
    24     52   1    9.7250e-02    4.4811e+05 ;     O3 - H13   
    25     53   1    9.7250e-02    4.4811e+05 ;     O4 - H14   
    27     54   1    9.7250e-02    4.4811e+05 ;     O6 - H15   
    28     55   1    9.7250e-02    4.4811e+05 ;     O7 - H16   
    29     56   1    9.7250e-02    4.4811e+05 ;     O8 - H17   
    30     59   1    9.7250e-02    4.4811e+05 ;     O9 - H20   

[ pairs ]
;   ai     aj    funct
     1      4      1 ;      C - C3    
     1      7      1 ;      C - C6    
     1     25      1 ;      C - O4    
     1     26      1 ;      C - O5    
     1     41      1 ;      C - H2    
     1     43      1 ;      C - H4    
     1     52      1 ;      C - H13   
     2      5      1 ;     C1 - C4    
     2     22      1 ;     C1 - O1    
     2     27      1 ;     C1 - O6    
     2     42      1 ;     C1 - H3    
     2     44      1 ;     C1 - H5    
     2     45      1 ;     C1 - H6    
     2     53      1 ;     C1 - H14   
     3     26      1 ;     C2 - O5    
     3     43      1 ;     C2 - H4    
     3     52      1 ;     C2 - H13   
     3     54      1 ;     C2 - H15   
     4     12      1 ;     C3 - C11   
     4     24      1 ;     C3 - O3    
     4     40      1 ;     C3 - H1    
     4     53      1 ;     C3 - H14   
     5     13      1 ;     C4 - C12   
     5     25      1 ;     C4 - O4    
     5     41      1 ;     C4 - H2    
     5     54      1 ;     C4 - H15   
     5     57      1 ;     C4 - H18   
     5     58      1 ;     C4 - H19   
     6      3      1 ;     C5 - C2    
     6      5      1 ;     C5 - C4    
     6      8      1 ;     C5 - C7    
     6     23      1 ;     C5 - O2    
     6     24      1 ;     C5 - O3    
     6     40      1 ;     C5 - H1    
     6     46      1 ;     C5 - H7    
     7     10      1 ;     C6 - C9    
     7     29      1 ;     C6 - O8    
     7     44      1 ;     C6 - H5    
     7     45      1 ;     C6 - H6    
     7     48      1 ;     C6 - H9    
     7     50      1 ;     C6 - H11   
     7     51      1 ;     C6 - H12   
     7     55      1 ;     C6 - H16   
     8     11      1 ;     C7 - C10   
     8     30      1 ;     C7 - O9    
     8     49      1 ;     C7 - H10   
     8     56      1 ;     C7 - H17   
     9     22      1 ;     C8 - O1    
     9     23      1 ;     C8 - O2    
     9     46      1 ;     C8 - H7    
     9     50      1 ;     C8 - H11   
     9     51      1 ;     C8 - H12   
     9     55      1 ;     C8 - H16   
     9     59      1 ;     C8 - H20   
    10     28      1 ;     C9 - O7    
    10     47      1 ;     C9 - H8    
    10     56      1 ;     C9 - H17   
    11     22      1 ;    C10 - O1    
    11     29      1 ;    C10 - O8    
    11     46      1 ;    C10 - H7    
    11     48      1 ;    C10 - H9    
    11     59      1 ;    C10 - H20   
    12     15      1 ;    C11 - C14   
    12     21      1 ;    C11 - O     
    12     32      1 ;    C11 - H02   
    12     43      1 ;    C11 - H4    
    12     61      1 ;    C11 - H22   
    13     16      1 ;    C12 - C15   
    13     17      1 ;    C12 - C16   
    13     33      1 ;    C12 - H03   
    14     18      1 ;    C13 - C17   
    14     19      1 ;    C13 - C18   
    14     26      1 ;    C13 - O5    
    14     34      1 ;    C13 - H04   
    14     35      1 ;    C13 - H05   
    14     57      1 ;    C13 - H18   
    14     58      1 ;    C13 - H19   
    14     62      1 ;    C13 - H23   
    14     63      1 ;    C13 - H24   
    15     20      1 ;    C14 - C19   
    15     31      1 ;    C14 - H01   
    15     36      1 ;    C14 - H06   
    15     37      1 ;    C14 - H07   
    15     60      1 ;    C14 - H21   
    15     64      1 ;    C14 - H25   
    15     65      1 ;    C14 - H26   
    16     19      1 ;    C15 - C18   
    16     32      1 ;    C15 - H02   
    16     35      1 ;    C15 - H05   
    16     38      1 ;    C15 - H08   
    16     61      1 ;    C15 - H22   
    16     63      1 ;    C15 - H24   
    16     66      1 ;    C15 - H27   
    17     18      1 ;    C16 - C17   
    17     32      1 ;    C16 - H02   
    17     34      1 ;    C16 - H04   
    17     38      1 ;    C16 - H08   
    17     61      1 ;    C16 - H22   
    17     62      1 ;    C16 - H23   
    17     66      1 ;    C16 - H27   
    18     33      1 ;    C17 - H03   
    18     37      1 ;    C17 - H07   
    18     65      1 ;    C17 - H26   
    19     33      1 ;    C18 - H03   
    19     36      1 ;    C18 - H06   
    19     64      1 ;    C18 - H25   
    20     34      1 ;    C19 - H04   
    20     35      1 ;    C19 - H05   
    20     62      1 ;    C19 - H23   
    20     63      1 ;    C19 - H24   
    21      3      1 ;      O - C2    
    21     22      1 ;      O - O1    
    21     24      1 ;      O - O3    
    21     27      1 ;      O - O6    
    21     40      1 ;      O - H1    
    21     42      1 ;      O - H3    
    21     44      1 ;      O - H5    
    21     45      1 ;      O - H6    
    22     28      1 ;     O1 - O7    
    22     47      1 ;     O1 - H8    
    23     28      1 ;     O2 - O7    
    23     30      1 ;     O2 - O9    
    23     47      1 ;     O2 - H8    
    23     49      1 ;     O2 - H10   
    24     25      1 ;     O3 - O4    
    24     41      1 ;     O3 - H2    
    25     27      1 ;     O4 - O6    
    25     40      1 ;     O4 - H1    
    25     42      1 ;     O4 - H3    
    26     27      1 ;     O5 - O6    
    26     31      1 ;     O5 - H01   
    26     42      1 ;     O5 - H3    
    26     60      1 ;     O5 - H21   
    27     41      1 ;     O6 - H2    
    27     43      1 ;     O6 - H4    
    28     29      1 ;     O7 - O8    
    28     46      1 ;     O7 - H7    
    28     48      1 ;     O7 - H9    
    29     30      1 ;     O8 - O9    
    29     47      1 ;     O8 - H8    
    29     49      1 ;     O8 - H10   
    30     48      1 ;     O9 - H9    
    30     50      1 ;     O9 - H11   
    30     51      1 ;     O9 - H12   
    31     32      1 ;    H01 - H02   
    31     57      1 ;    H01 - H18   
    31     58      1 ;    H01 - H19   
    31     61      1 ;    H01 - H22   
    32     33      1 ;    H02 - H03   
    32     60      1 ;    H02 - H21   
    33     34      1 ;    H03 - H04   
    33     35      1 ;    H03 - H05   
    33     61      1 ;    H03 - H22   
    33     62      1 ;    H03 - H23   
    33     63      1 ;    H03 - H24   
    34     36      1 ;    H04 - H06   
    34     64      1 ;    H04 - H25   
    35     37      1 ;    H05 - H07   
    35     65      1 ;    H05 - H26   
    36     38      1 ;    H06 - H08   
    36     62      1 ;    H06 - H23   
    36     66      1 ;    H06 - H27   
    37     38      1 ;    H07 - H08   
    37     63      1 ;    H07 - H24   
    37     66      1 ;    H07 - H27   
    38     64      1 ;    H08 - H25   
    38     65      1 ;    H08 - H26   
    39      3      1 ;      H - C2    
    39      5      1 ;      H - C4    
    39     22      1 ;      H - O1    
    39     24      1 ;      H - O3    
    39     40      1 ;      H - H1    
    39     44      1 ;      H - H5    
    39     45      1 ;      H - H6    
    40     41      1 ;     H1 - H2    
    40     52      1 ;     H1 - H13   
    41     42      1 ;     H2 - H3    
    41     53      1 ;     H2 - H14   
    42     43      1 ;     H3 - H4    
    42     54      1 ;     H3 - H15   
    46     47      1 ;     H7 - H8    
    47     48      1 ;     H8 - H9    
    47     55      1 ;     H8 - H16   
    48     49      1 ;     H9 - H10   
    48     56      1 ;     H9 - H17   
    49     50      1 ;    H10 - H11   
    49     51      1 ;    H10 - H12   
    49     59      1 ;    H10 - H20   
    57     60      1 ;    H18 - H21   
    58     60      1 ;    H19 - H21   
    60     61      1 ;    H21 - H22   
    62     64      1 ;    H23 - H25   
    63     65      1 ;    H24 - H26   
    64     66      1 ;    H25 - H27   
    65     66      1 ;    H26 - H27   

[ angles ]
;   ai     aj     ak    funct   theta         cth
     1      2      3      1    1.1106e+02    5.0359e+02 ;      C - C1     - C2    
     1      2     24      1    1.1005e+02    6.4065e+02 ;      C - C1     - O3    
     1      2     40      1    1.0918e+02    3.6217e+02 ;      C - C1     - H1    
     1      6     22      1    1.0855e+02    6.4342e+02 ;      C - C5     - O1    
     1      6     44      1    1.0913e+02    3.6141e+02 ;      C - C5     - H5    
     1      6     45      1    1.0913e+02    3.6141e+02 ;      C - C5     - H6    
     1     21      5      1    1.1330e+02    7.3873e+02 ;      C - O      - C4    
     2      1      6      1    1.1143e+02    5.0200e+02 ;     C1 - C      - C5    
     2      1     21      1    1.1009e+02    6.3948e+02 ;     C1 - C      - O     
     2      1     39      1    1.0918e+02    3.6217e+02 ;     C1 - C      - H     
     2      3      4      1    1.1106e+02    5.0359e+02 ;     C1 - C2     - C3    
     2      3     25      1    1.1005e+02    6.4065e+02 ;     C1 - C2     - O4    
     2      3     41      1    1.0918e+02    3.6217e+02 ;     C1 - C2     - H2    
     2     24     52      1    1.0707e+02    5.4584e+02 ;     C1 - O3     - H13   
     3      2     24      1    1.1005e+02    6.4065e+02 ;     C2 - C1     - O3    
     3      2     40      1    1.0918e+02    3.6217e+02 ;     C2 - C1     - H1    
     3      4      5      1    1.1106e+02    5.0359e+02 ;     C2 - C3     - C4    
     3      4     27      1    1.1005e+02    6.4065e+02 ;     C2 - C3     - O6    
     3      4     42      1    1.0918e+02    3.6217e+02 ;     C2 - C3     - H3    
     3     25     53      1    1.0707e+02    5.4584e+02 ;     C2 - O4     - H14   
     4      3     25      1    1.1005e+02    6.4065e+02 ;     C3 - C2     - O4    
     4      3     41      1    1.0918e+02    3.6217e+02 ;     C3 - C2     - H2    
     4      5     21      1    1.1009e+02    6.3948e+02 ;     C3 - C4     - O     
     4      5     26      1    1.1009e+02    6.3948e+02 ;     C3 - C4     - O5    
     4      5     43      1    1.0998e+02    3.6083e+02 ;     C3 - C4     - H4    
     4     27     54      1    1.0707e+02    5.4584e+02 ;     C3 - O6     - H15   
     5      4     27      1    1.1005e+02    6.4065e+02 ;     C4 - C3     - O6    
     5      4     42      1    1.0918e+02    3.6217e+02 ;     C4 - C3     - H3    
     5     26     12      1    1.1513e+02    7.3354e+02 ;     C4 - O5     - C11   
     6      1     21      1    1.0683e+02    6.4810e+02 ;     C5 - C      - O     
     6      1     39      1    1.0855e+02    3.6233e+02 ;     C5 - C      - H     
     6     22      7      1    1.1513e+02    7.3354e+02 ;     C5 - O1     - C6    
     7      8      9      1    1.1106e+02    5.0359e+02 ;     C6 - C7     - C8    
     7      8     28      1    1.1005e+02    6.4065e+02 ;     C6 - C7     - O7    
     7      8     47      1    1.0918e+02    3.6217e+02 ;     C6 - C7     - H8    
     7     23     11      1    1.1330e+02    7.3873e+02 ;     C6 - O2     - C10   
     8      7     22      1    1.1009e+02    6.3948e+02 ;     C7 - C6     - O1    
     8      7     23      1    1.1009e+02    6.3948e+02 ;     C7 - C6     - O2    
     8      7     46      1    1.0998e+02    3.6083e+02 ;     C7 - C6     - H7    
     8      9     10      1    1.1106e+02    5.0359e+02 ;     C7 - C8     - C9    
     8      9     29      1    1.1005e+02    6.4065e+02 ;     C7 - C8     - O8    
     8      9     48      1    1.0918e+02    3.6217e+02 ;     C7 - C8     - H9    
     8     28     55      1    1.0707e+02    5.4584e+02 ;     C7 - O7     - H16   
     9      8     28      1    1.1005e+02    6.4065e+02 ;     C8 - C7     - O7    
     9      8     47      1    1.0918e+02    3.6217e+02 ;     C8 - C7     - H8    
     9     10     11      1    1.1106e+02    5.0359e+02 ;     C8 - C9     - C10   
     9     10     30      1    1.1005e+02    6.4065e+02 ;     C8 - C9     - O9    
     9     10     49      1    1.0918e+02    3.6217e+02 ;     C8 - C9     - H10   
     9     29     56      1    1.0707e+02    5.4584e+02 ;     C8 - O8     - H17   
    10      9     29      1    1.1005e+02    6.4065e+02 ;     C9 - C8     - O8    
    10      9     48      1    1.0918e+02    3.6217e+02 ;     C9 - C8     - H9    
    10     11     23      1    1.1009e+02    6.3948e+02 ;     C9 - C10    - O2    
    10     11     50      1    1.0918e+02    3.6217e+02 ;     C9 - C10    - H11   
    10     11     51      1    1.0918e+02    3.6217e+02 ;     C9 - C10    - H12   
    10     30     59      1    1.0707e+02    5.4584e+02 ;     C9 - O9     - H20   
    11     10     30      1    1.1005e+02    6.4065e+02 ;    C10 - C9     - O9    
    11     10     49      1    1.0918e+02    3.6217e+02 ;    C10 - C9     - H10   
    12     13     14      1    1.1263e+02    5.0099e+02 ;    C11 - C12    - C13   
    12     13     31      1    1.0968e+02    3.6208e+02 ;    C11 - C12    - H01   
    12     13     60      1    1.0968e+02    3.6208e+02 ;    C11 - C12    - H21   
    13     12     26      1    1.0762e+02    6.4802e+02 ;    C12 - C11    - O5    
    13     12     57      1    1.0959e+02    3.6217e+02 ;    C12 - C11    - H18   
    13     12     58      1    1.0959e+02    3.6217e+02 ;    C12 - C11    - H19   
    13     14     15      1    1.1393e+02    4.9698e+02 ;    C12 - C13    - C14   
    13     14     32      1    1.0968e+02    3.6208e+02 ;    C12 - C13    - H02   
    13     14     61      1    1.0968e+02    3.6208e+02 ;    C12 - C13    - H22   
    14     13     31      1    1.0968e+02    3.6208e+02 ;    C13 - C12    - H01   
    14     13     60      1    1.0968e+02    3.6208e+02 ;    C13 - C12    - H21   
    14     15     16      1    1.1143e+02    5.0200e+02 ;    C13 - C14    - C15   
    14     15     17      1    1.1143e+02    5.0200e+02 ;    C13 - C14    - C16   
    14     15     33      1    1.0746e+02    3.6418e+02 ;    C13 - C14    - H03   
    15     14     32      1    1.1063e+02    3.5890e+02 ;    C14 - C13    - H02   
    15     14     61      1    1.1063e+02    3.5890e+02 ;    C14 - C13    - H22   
    15     16     18      1    1.1106e+02    5.0359e+02 ;    C14 - C15    - C17   
    15     16     34      1    1.0945e+02    3.6175e+02 ;    C14 - C15    - H04   
    15     16     62      1    1.0945e+02    3.6175e+02 ;    C14 - C15    - H23   
    15     17     19      1    1.1106e+02    5.0359e+02 ;    C14 - C16    - C18   
    15     17     35      1    1.0945e+02    3.6175e+02 ;    C14 - C16    - H05   
    15     17     63      1    1.0945e+02    3.6175e+02 ;    C14 - C16    - H24   
    16     15     17      1    1.1106e+02    5.0359e+02 ;    C15 - C14    - C16   
    16     15     33      1    1.0945e+02    3.6175e+02 ;    C15 - C14    - H03   
    16     18     20      1    1.1106e+02    5.0359e+02 ;    C15 - C17    - C19   
    16     18     36      1    1.0945e+02    3.6175e+02 ;    C15 - C17    - H06   
    16     18     64      1    1.0945e+02    3.6175e+02 ;    C15 - C17    - H25   
    17     15     33      1    1.0945e+02    3.6175e+02 ;    C16 - C14    - H03   
    17     19     20      1    1.1106e+02    5.0359e+02 ;    C16 - C18    - C19   
    17     19     37      1    1.0945e+02    3.6175e+02 ;    C16 - C18    - H07   
    17     19     65      1    1.0945e+02    3.6175e+02 ;    C16 - C18    - H26   
    18     16     34      1    1.0945e+02    3.6175e+02 ;    C17 - C15    - H04   
    18     16     62      1    1.0945e+02    3.6175e+02 ;    C17 - C15    - H23   
    18     20     19      1    1.1106e+02    5.0359e+02 ;    C17 - C19    - C18   
    18     20     38      1    1.0945e+02    3.6175e+02 ;    C17 - C19    - H08   
    18     20     66      1    1.0945e+02    3.6175e+02 ;    C17 - C19    - H27   
    19     17     35      1    1.0945e+02    3.6175e+02 ;    C18 - C16    - H05   
    19     17     63      1    1.0945e+02    3.6175e+02 ;    C18 - C16    - H24   
    19     20     38      1    1.0945e+02    3.6175e+02 ;    C18 - C19    - H08   
    19     20     66      1    1.0945e+02    3.6175e+02 ;    C18 - C19    - H27   
    20     18     36      1    1.0945e+02    3.6175e+02 ;    C19 - C17    - H06   
    20     18     64      1    1.0945e+02    3.6175e+02 ;    C19 - C17    - H25   
    20     19     37      1    1.0945e+02    3.6175e+02 ;    C19 - C18    - H07   
    20     19     65      1    1.0945e+02    3.6175e+02 ;    C19 - C18    - H26   
    21      1     39      1    1.0808e+02    4.7430e+02 ;      O - C      - H     
    21      5     26      1    1.0950e+02    8.1613e+02 ;      O - C4     - O5    
    21      5     43      1    1.0944e+02    4.7137e+02 ;      O - C4     - H4    
    22      6     44      1    1.1034e+02    4.7028e+02 ;     O1 - C5     - H5    
    22      6     45      1    1.1034e+02    4.7028e+02 ;     O1 - C5     - H6    
    22      7     23      1    1.0950e+02    8.1613e+02 ;     O1 - C6     - O2    
    22      7     46      1    1.0944e+02    4.7137e+02 ;     O1 - C6     - H7    
    23      7     46      1    1.0944e+02    4.7137e+02 ;     O2 - C6     - H7    
    23     11     50      1    1.0808e+02    4.7430e+02 ;     O2 - C10    - H11   
    23     11     51      1    1.0808e+02    4.7430e+02 ;     O2 - C10    - H12   
    24      2     40      1    1.0996e+02    4.7187e+02 ;     O3 - C1     - H1    
    25      3     41      1    1.0996e+02    4.7187e+02 ;     O4 - C2     - H2    
    26      5     43      1    1.0944e+02    4.7137e+02 ;     O5 - C4     - H4    
    26     12     57      1    1.1034e+02    4.7028e+02 ;     O5 - C11    - H18   
    26     12     58      1    1.1034e+02    4.7028e+02 ;     O5 - C11    - H19   
    27      4     42      1    1.0996e+02    4.7187e+02 ;     O6 - C3     - H3    
    28      8     47      1    1.0996e+02    4.7187e+02 ;     O7 - C7     - H8    
    29      9     48      1    1.0996e+02    4.7187e+02 ;     O8 - C8     - H9    
    30     10     49      1    1.0996e+02    4.7187e+02 ;     O9 - C9     - H10   
    31     13     60      1    1.0773e+02    2.9957e+02 ;    H01 - C12    - H21   
    32     14     61      1    1.0773e+02    2.9957e+02 ;    H02 - C13    - H22   
    34     16     62      1    1.0662e+02    3.0066e+02 ;    H04 - C15    - H23   
    35     17     63      1    1.0662e+02    3.0066e+02 ;    H05 - C16    - H24   
    36     18     64      1    1.0662e+02    3.0066e+02 ;    H06 - C17    - H25   
    37     19     65      1    1.0662e+02    3.0066e+02 ;    H07 - C18    - H26   
    38     20     66      1    1.0662e+02    3.0066e+02 ;    H08 - C19    - H27   
    44      6     45      1    1.0855e+02    2.9824e+02 ;     H5 - C5     - H6    
    50     11     51      1    1.0750e+02    2.9932e+02 ;    H11 - C10    - H12   
    57     12     58      1    1.0855e+02    2.9824e+02 ;    H18 - C11    - H19   

[ dihedrals ] ; propers
; for gromacs 4.5 or higher, using funct 9
;    i      j      k      l   func   phase     kd      pn
     1      2      3      4      9     0.00   2.17568   3 ;      C-    C1-    C2-    C3
     1      2      3     25      9     0.00   0.75312   3 ;      C-    C1-    C2-    O4
     1      2      3     41      9     0.00   0.65084   3 ;      C-    C1-    C2-    H2
     1      2     24     52      9     0.00   0.25104   3 ;      C-    C1-    O3-   H13
     1      6     22      7      9     0.00   0.33472   2 ;      C-    C5-    O1-    C6
     1      6     22      7      9     0.00   3.13800   3 ;      C-    C5-    O1-    C6
     1      6     22      7      9   180.00   3.68192   1 ;      C-    C5-    O1-    C6
     1     21      5      4      9     0.00   4.85344   3 ;      C-     O-    C4-    C3
     1     21      5      4      9     0.00   5.77392   2 ;      C-     O-    C4-    C3
     1     21      5      4      9   180.00   1.46440   1 ;      C-     O-    C4-    C3
     1     21      5     26      9     0.00   0.12552   3 ;      C-     O-    C4-    O5
     1     21      5     26      9     0.00   6.23416   2 ;      C-     O-    C4-    O5
     1     21      5     26      9   180.00   3.68192   1 ;      C-     O-    C4-    O5
     1     21      5     43      9     0.00   1.60387   3 ;      C-     O-    C4-    H4
     2      1      6     22      9     0.00   0.65084   3 ;     C1-     C-    C5-    O1
     2      1      6     44      9     0.00   0.65084   3 ;     C1-     C-    C5-    H5
     2      1      6     45      9     0.00   0.65084   3 ;     C1-     C-    C5-    H6
     2      1     21      5      9     0.00   4.85344   3 ;     C1-     C-     O-    C4
     2      1     21      5      9     0.00   5.77392   2 ;     C1-     C-     O-    C4
     2      1     21      5      9   180.00   1.46440   1 ;     C1-     C-     O-    C4
     2      3      4      5      9     0.00   2.17568   3 ;     C1-    C2-    C3-    C4
     2      3      4     27      9     0.00   0.75312   3 ;     C1-    C2-    C3-    O6
     2      3      4     42      9     0.00   0.65084   3 ;     C1-    C2-    C3-    H3
     2      3     25     53      9     0.00   0.25104   3 ;     C1-    C2-    O4-   H14
     3      2     24     52      9     0.00   0.25104   3 ;     C2-    C1-    O3-   H13
     3      4      5     21      9     0.00   0.65084   3 ;     C2-    C3-    C4-     O
     3      4      5     26      9     0.00   0.65084   3 ;     C2-    C3-    C4-    O5
     3      4      5     43      9     0.00   0.65084   3 ;     C2-    C3-    C4-    H4
     3      4     27     54      9     0.00   0.25104   3 ;     C2-    C3-    O6-   H15
     4      3      2     24      9     0.00   0.75312   3 ;     C3-    C2-    C1-    O3
     4      3      2     40      9     0.00   0.65084   3 ;     C3-    C2-    C1-    H1
     4      3     25     53      9     0.00   0.25104   3 ;     C3-    C2-    O4-   H14
     4      5     26     12      9     0.00   0.33472   2 ;     C3-    C4-    O5-   C11
     4      5     26     12      9     0.00   3.13800   3 ;     C3-    C4-    O5-   C11
     4      5     26     12      9   180.00   3.68192   1 ;     C3-    C4-    O5-   C11
     5      4      3     25      9     0.00   0.75312   3 ;     C4-    C3-    C2-    O4
     5      4      3     41      9     0.00   0.65084   3 ;     C4-    C3-    C2-    H2
     5      4     27     54      9     0.00   0.25104   3 ;     C4-    C3-    O6-   H15
     5     26     12     13      9     0.00   0.33472   2 ;     C4-    O5-   C11-   C12
     5     26     12     13      9     0.00   3.13800   3 ;     C4-    O5-   C11-   C12
     5     26     12     13      9   180.00   3.68192   1 ;     C4-    O5-   C11-   C12
     5     26     12     57      9     0.00   1.41001   3 ;     C4-    O5-   C11-   H18
     5     26     12     58      9     0.00   1.41001   3 ;     C4-    O5-   C11-   H19
     6      1      2      3      9     0.00   2.17568   3 ;     C5-     C-    C1-    C2
     6      1      2     24      9     0.00   0.75312   3 ;     C5-     C-    C1-    O3
     6      1      2     40      9     0.00   0.65084   3 ;     C5-     C-    C1-    H1
     6      1     21      5      9     0.00   0.33472   2 ;     C5-     C-     O-    C4
     6      1     21      5      9     0.00   3.13800   3 ;     C5-     C-     O-    C4
     6      1     21      5      9   180.00   3.68192   1 ;     C5-     C-     O-    C4
     6     22      7      8      9     0.00   0.33472   2 ;     C5-    O1-    C6-    C7
     6     22      7      8      9     0.00   3.13800   3 ;     C5-    O1-    C6-    C7
     6     22      7      8      9   180.00   3.68192   1 ;     C5-    O1-    C6-    C7
     6     22      7     23      9     0.00   3.55640   2 ;     C5-    O1-    C6-    O2
     6     22      7     23      9     0.00   3.55640   3 ;     C5-    O1-    C6-    O2
     6     22      7     23      9   180.00   1.92464   1 ;     C5-    O1-    C6-    O2
     6     22      7     46      9     0.00   1.60387   3 ;     C5-    O1-    C6-    H7
     7      8      9     10      9     0.00   2.17568   3 ;     C6-    C7-    C8-    C9
     7      8      9     29      9     0.00   0.75312   3 ;     C6-    C7-    C8-    O8
     7      8      9     48      9     0.00   0.65084   3 ;     C6-    C7-    C8-    H9
     7      8     28     55      9     0.00   0.25104   3 ;     C6-    C7-    O7-   H16
     7     22      6     44      9     0.00   1.41001   3 ;     C6-    O1-    C5-    H5
     7     22      6     45      9     0.00   1.41001   3 ;     C6-    O1-    C5-    H6
     7     23     11     10      9     0.00   4.85344   3 ;     C6-    O2-   C10-    C9
     7     23     11     10      9     0.00   5.77392   2 ;     C6-    O2-   C10-    C9
     7     23     11     10      9   180.00   1.46440   1 ;     C6-    O2-   C10-    C9
     7     23     11     50      9     0.00   1.41001   3 ;     C6-    O2-   C10-   H11
     7     23     11     51      9     0.00   1.41001   3 ;     C6-    O2-   C10-   H12
     8      7     23     11      9     0.00   4.85344   3 ;     C7-    C6-    O2-   C10
     8      7     23     11      9     0.00   5.77392   2 ;     C7-    C6-    O2-   C10
     8      7     23     11      9   180.00   1.46440   1 ;     C7-    C6-    O2-   C10
     8      9     10     11      9     0.00   2.17568   3 ;     C7-    C8-    C9-   C10
     8      9     10     30      9     0.00   0.75312   3 ;     C7-    C8-    C9-    O9
     8      9     10     49      9     0.00   0.65084   3 ;     C7-    C8-    C9-   H10
     8      9     29     56      9     0.00   0.25104   3 ;     C7-    C8-    O8-   H17
     9      8      7     22      9     0.00   0.65084   3 ;     C8-    C7-    C6-    O1
     9      8      7     23      9     0.00   0.65084   3 ;     C8-    C7-    C6-    O2
     9      8      7     46      9     0.00   0.65084   3 ;     C8-    C7-    C6-    H7
     9      8     28     55      9     0.00   0.25104   3 ;     C8-    C7-    O7-   H16
     9     10     11     23      9     0.00   0.65084   3 ;     C8-    C9-   C10-    O2
     9     10     11     50      9     0.00   0.65084   3 ;     C8-    C9-   C10-   H11
     9     10     11     51      9     0.00   0.65084   3 ;     C8-    C9-   C10-   H12
     9     10     30     59      9     0.00   0.25104   3 ;     C8-    C9-    O9-   H20
    10      9      8     28      9     0.00   0.75312   3 ;     C9-    C8-    C7-    O7
    10      9      8     47      9     0.00   0.65084   3 ;     C9-    C8-    C7-    H8
    10      9     29     56      9     0.00   0.25104   3 ;     C9-    C8-    O8-   H17
    11     10      9     29      9     0.00   0.75312   3 ;    C10-    C9-    C8-    O8
    11     10      9     48      9     0.00   0.65084   3 ;    C10-    C9-    C8-    H9
    11     10     30     59      9     0.00   0.25104   3 ;    C10-    C9-    O9-   H20
    11     23      7     22      9     0.00   0.12552   3 ;    C10-    O2-    C6-    O1
    11     23      7     22      9     0.00   6.23416   2 ;    C10-    O2-    C6-    O1
    11     23      7     22      9   180.00   3.68192   1 ;    C10-    O2-    C6-    O1
    11     23      7     46      9     0.00   1.60387   3 ;    C10-    O2-    C6-    H7
    12     13     14     15      9     0.00   2.17568   3 ;    C11-   C12-   C13-   C14
    12     13     14     32      9     0.00   0.54392   3 ;    C11-   C12-   C13-   H02
    12     13     14     61      9     0.00   0.54392   3 ;    C11-   C12-   C13-   H22
    12     26      5     21      9     0.00   3.55640   2 ;    C11-    O5-    C4-     O
    12     26      5     21      9     0.00   3.55640   3 ;    C11-    O5-    C4-     O
    12     26      5     21      9   180.00   1.92464   1 ;    C11-    O5-    C4-     O
    12     26      5     43      9     0.00   1.60387   3 ;    C11-    O5-    C4-    H4
    13     14     15     16      9     0.00   2.17568   3 ;    C12-   C13-   C14-   C15
    13     14     15     17      9     0.00   2.17568   3 ;    C12-   C13-   C14-   C16
    13     14     15     33      9     0.00   0.54392   3 ;    C12-   C13-   C14-   H03
    14     13     12     26      9     0.00   0.65084   3 ;    C13-   C12-   C11-    O5
    14     13     12     57      9     0.00   0.65084   3 ;    C13-   C12-   C11-   H18
    14     13     12     58      9     0.00   0.65084   3 ;    C13-   C12-   C11-   H19
    14     15     16     18      9     0.00   2.17568   3 ;    C13-   C14-   C15-   C17
    14     15     16     34      9     0.00   0.54392   3 ;    C13-   C14-   C15-   H04
    14     15     16     62      9     0.00   0.54392   3 ;    C13-   C14-   C15-   H23
    14     15     17     19      9     0.00   2.17568   3 ;    C13-   C14-   C16-   C18
    14     15     17     35      9     0.00   0.54392   3 ;    C13-   C14-   C16-   H05
    14     15     17     63      9     0.00   0.54392   3 ;    C13-   C14-   C16-   H24
    15     14     13     31      9     0.00   0.54392   3 ;    C14-   C13-   C12-   H01
    15     14     13     60      9     0.00   0.54392   3 ;    C14-   C13-   C12-   H21
    15     16     18     20      9     0.00   2.17568   3 ;    C14-   C15-   C17-   C19
    15     16     18     36      9     0.00   0.54392   3 ;    C14-   C15-   C17-   H06
    15     16     18     64      9     0.00   0.54392   3 ;    C14-   C15-   C17-   H25
    15     17     19     20      9     0.00   2.17568   3 ;    C14-   C16-   C18-   C19
    15     17     19     37      9     0.00   0.54392   3 ;    C14-   C16-   C18-   H07
    15     17     19     65      9     0.00   0.54392   3 ;    C14-   C16-   C18-   H26
    16     15     14     32      9     0.00   0.54392   3 ;    C15-   C14-   C13-   H02
    16     15     14     61      9     0.00   0.54392   3 ;    C15-   C14-   C13-   H22
    16     15     17     19      9     0.00   2.17568   3 ;    C15-   C14-   C16-   C18
    16     15     17     35      9     0.00   0.54392   3 ;    C15-   C14-   C16-   H05
    16     15     17     63      9     0.00   0.54392   3 ;    C15-   C14-   C16-   H24
    16     18     20     19      9     0.00   2.17568   3 ;    C15-   C17-   C19-   C18
    16     18     20     38      9     0.00   0.54392   3 ;    C15-   C17-   C19-   H08
    16     18     20     66      9     0.00   0.54392   3 ;    C15-   C17-   C19-   H27
    17     15     14     32      9     0.00   0.54392   3 ;    C16-   C14-   C13-   H02
    17     15     14     61      9     0.00   0.54392   3 ;    C16-   C14-   C13-   H22
    17     15     16     18      9     0.00   2.17568   3 ;    C16-   C14-   C15-   C17
    17     15     16     34      9     0.00   0.54392   3 ;    C16-   C14-   C15-   H04
    17     15     16     62      9     0.00   0.54392   3 ;    C16-   C14-   C15-   H23
    17     19     20     18      9     0.00   2.17568   3 ;    C16-   C18-   C19-   C17
    17     19     20     38      9     0.00   0.54392   3 ;    C16-   C18-   C19-   H08
    17     19     20     66      9     0.00   0.54392   3 ;    C16-   C18-   C19-   H27
    18     16     15     33      9     0.00   0.54392   3 ;    C17-   C15-   C14-   H03
    18     20     19     37      9     0.00   0.54392   3 ;    C17-   C19-   C18-   H07
    18     20     19     65      9     0.00   0.54392   3 ;    C17-   C19-   C18-   H26
    19     17     15     33      9     0.00   0.54392   3 ;    C18-   C16-   C14-   H03
    19     20     18     36      9     0.00   0.54392   3 ;    C18-   C19-   C17-   H06
    19     20     18     64      9     0.00   0.54392   3 ;    C18-   C19-   C17-   H25
    20     18     16     34      9     0.00   0.54392   3 ;    C19-   C17-   C15-   H04
    20     18     16     62      9     0.00   0.54392   3 ;    C19-   C17-   C15-   H23
    20     19     17     35      9     0.00   0.54392   3 ;    C19-   C18-   C16-   H05
    20     19     17     63      9     0.00   0.54392   3 ;    C19-   C18-   C16-   H24
    21      1      2      3      9     0.00   0.65084   3 ;      O-     C-    C1-    C2
    21      1      2     24      9     0.00   4.47688   3 ;      O-     C-    C1-    O3
    21      1      2     24      9   180.00   2.80328   1 ;      O-     C-    C1-    O3
    21      1      2     24      9   180.00   3.05432   2 ;      O-     C-    C1-    O3
    21      1      2     40      9     0.00   0.00000   0 ;      O-     C-    C1-    H1
    21      1      2     40      9     0.00   1.04600   1 ;      O-     C-    C1-    H1
    21      1      6     22      9     0.00   0.75312   1 ;      O-     C-    C5-    O1
    21      1      6     22      9     0.00   2.09200   3 ;      O-     C-    C5-    O1
    21      1      6     22      9     0.00   3.76560   2 ;      O-     C-    C5-    O1
    21      1      6     44      9     0.00   0.00000   0 ;      O-     C-    C5-    H5
    21      1      6     44      9     0.00   1.04600   1 ;      O-     C-    C5-    H5
    21      1      6     45      9     0.00   0.00000   0 ;      O-     C-    C5-    H6
    21      1      6     45      9     0.00   1.04600   1 ;      O-     C-    C5-    H6
    21      5      4     27      9     0.00   4.47688   3 ;      O-    C4-    C3-    O6
    21      5      4     27      9   180.00   2.80328   1 ;      O-    C4-    C3-    O6
    21      5      4     27      9   180.00   3.05432   2 ;      O-    C4-    C3-    O6
    21      5      4     42      9     0.00   0.00000   0 ;      O-    C4-    C3-    H3
    21      5      4     42      9     0.00   1.04600   1 ;      O-    C4-    C3-    H3
    22      7      8     28      9     0.00   4.47688   3 ;     O1-    C6-    C7-    O7
    22      7      8     28      9   180.00   2.80328   1 ;     O1-    C6-    C7-    O7
    22      7      8     28      9   180.00   3.05432   2 ;     O1-    C6-    C7-    O7
    22      7      8     47      9     0.00   0.00000   0 ;     O1-    C6-    C7-    H8
    22      7      8     47      9     0.00   1.04600   1 ;     O1-    C6-    C7-    H8
    23      7      8     28      9     0.00   4.47688   3 ;     O2-    C6-    C7-    O7
    23      7      8     28      9   180.00   2.80328   1 ;     O2-    C6-    C7-    O7
    23      7      8     28      9   180.00   3.05432   2 ;     O2-    C6-    C7-    O7
    23      7      8     47      9     0.00   0.00000   0 ;     O2-    C6-    C7-    H8
    23      7      8     47      9     0.00   1.04600   1 ;     O2-    C6-    C7-    H8
    23     11     10     30      9     0.00   4.47688   3 ;     O2-   C10-    C9-    O9
    23     11     10     30      9   180.00   2.80328   1 ;     O2-   C10-    C9-    O9
    23     11     10     30      9   180.00   3.05432   2 ;     O2-   C10-    C9-    O9
    23     11     10     49      9     0.00   0.00000   0 ;     O2-   C10-    C9-   H10
    23     11     10     49      9     0.00   1.04600   1 ;     O2-   C10-    C9-   H10
    24      2      3     25      9     0.00   4.18400   1 ;     O3-    C1-    C2-    O4
    24      2      3     25      9     0.00   6.02496   3 ;     O3-    C1-    C2-    O4
    24      2      3     41      9     0.00   0.00000   0 ;     O3-    C1-    C2-    H2
    24      2      3     41      9     0.00   1.04600   1 ;     O3-    C1-    C2-    H2
    25      3      2     40      9     0.00   0.00000   0 ;     O4-    C2-    C1-    H1
    25      3      2     40      9     0.00   1.04600   1 ;     O4-    C2-    C1-    H1
    25      3      4     27      9     0.00   4.18400   1 ;     O4-    C2-    C3-    O6
    25      3      4     27      9     0.00   6.02496   3 ;     O4-    C2-    C3-    O6
    25      3      4     42      9     0.00   0.00000   0 ;     O4-    C2-    C3-    H3
    25      3      4     42      9     0.00   1.04600   1 ;     O4-    C2-    C3-    H3
    26      5      4     27      9     0.00   4.47688   3 ;     O5-    C4-    C3-    O6
    26      5      4     27      9   180.00   2.80328   1 ;     O5-    C4-    C3-    O6
    26      5      4     27      9   180.00   3.05432   2 ;     O5-    C4-    C3-    O6
    26      5      4     42      9     0.00   0.00000   0 ;     O5-    C4-    C3-    H3
    26      5      4     42      9     0.00   1.04600   1 ;     O5-    C4-    C3-    H3
    26     12     13     31      9     0.00   0.00000   0 ;     O5-   C11-   C12-   H01
    26     12     13     31      9     0.00   1.04600   1 ;     O5-   C11-   C12-   H01
    26     12     13     60      9     0.00   0.00000   0 ;     O5-   C11-   C12-   H21
    26     12     13     60      9     0.00   1.04600   1 ;     O5-   C11-   C12-   H21
    27      4      3     41      9     0.00   0.00000   0 ;     O6-    C3-    C2-    H2
    27      4      3     41      9     0.00   1.04600   1 ;     O6-    C3-    C2-    H2
    27      4      5     43      9     0.00   0.65084   3 ;     O6-    C3-    C4-    H4
    28      8      7     46      9     0.00   0.65084   3 ;     O7-    C7-    C6-    H7
    28      8      9     29      9     0.00   4.18400   1 ;     O7-    C7-    C8-    O8
    28      8      9     29      9     0.00   6.02496   3 ;     O7-    C7-    C8-    O8
    28      8      9     48      9     0.00   0.00000   0 ;     O7-    C7-    C8-    H9
    28      8      9     48      9     0.00   1.04600   1 ;     O7-    C7-    C8-    H9
    29      9      8     47      9     0.00   0.00000   0 ;     O8-    C8-    C7-    H8
    29      9      8     47      9     0.00   1.04600   1 ;     O8-    C8-    C7-    H8
    29      9     10     30      9     0.00   4.18400   1 ;     O8-    C8-    C9-    O9
    29      9     10     30      9     0.00   6.02496   3 ;     O8-    C8-    C9-    O9
    29      9     10     49      9     0.00   0.00000   0 ;     O8-    C8-    C9-   H10
    29      9     10     49      9     0.00   1.04600   1 ;     O8-    C8-    C9-   H10
    30     10      9     48      9     0.00   0.00000   0 ;     O9-    C9-    C8-    H9
    30     10      9     48      9     0.00   1.04600   1 ;     O9-    C9-    C8-    H9
    30     10     11     50      9     0.00   0.00000   0 ;     O9-    C9-   C10-   H11
    30     10     11     50      9     0.00   1.04600   1 ;     O9-    C9-   C10-   H11
    30     10     11     51      9     0.00   0.00000   0 ;     O9-    C9-   C10-   H12
    30     10     11     51      9     0.00   1.04600   1 ;     O9-    C9-   C10-   H12
    31     13     12     57      9     0.00   0.65084   3 ;    H01-   C12-   C11-   H18
    31     13     12     58      9     0.00   0.65084   3 ;    H01-   C12-   C11-   H19
    31     13     14     32      9     0.00   0.50208   3 ;    H01-   C12-   C13-   H02
    31     13     14     61      9     0.00   0.50208   3 ;    H01-   C12-   C13-   H22
    32     14     13     60      9     0.00   0.50208   3 ;    H02-   C13-   C12-   H21
    32     14     15     33      9     0.00   0.50208   3 ;    H02-   C13-   C14-   H03
    33     15     14     61      9     0.00   0.50208   3 ;    H03-   C14-   C13-   H22
    33     15     16     34      9     0.00   0.50208   3 ;    H03-   C14-   C15-   H04
    33     15     16     62      9     0.00   0.50208   3 ;    H03-   C14-   C15-   H23
    33     15     17     35      9     0.00   0.50208   3 ;    H03-   C14-   C16-   H05
    33     15     17     63      9     0.00   0.50208   3 ;    H03-   C14-   C16-   H24
    34     16     18     36      9     0.00   0.50208   3 ;    H04-   C15-   C17-   H06
    34     16     18     64      9     0.00   0.50208   3 ;    H04-   C15-   C17-   H25
    35     17     19     37      9     0.00   0.50208   3 ;    H05-   C16-   C18-   H07
    35     17     19     65      9     0.00   0.50208   3 ;    H05-   C16-   C18-   H26
    36     18     16     62      9     0.00   0.50208   3 ;    H06-   C17-   C15-   H23
    36     18     20     38      9     0.00   0.50208   3 ;    H06-   C17-   C19-   H08
    36     18     20     66      9     0.00   0.50208   3 ;    H06-   C17-   C19-   H27
    37     19     17     63      9     0.00   0.50208   3 ;    H07-   C18-   C16-   H24
    37     19     20     38      9     0.00   0.50208   3 ;    H07-   C18-   C19-   H08
    37     19     20     66      9     0.00   0.50208   3 ;    H07-   C18-   C19-   H27
    38     20     18     64      9     0.00   0.50208   3 ;    H08-   C19-   C17-   H25
    38     20     19     65      9     0.00   0.50208   3 ;    H08-   C19-   C18-   H26
    39      1      2      3      9     0.00   0.65084   3 ;      H-     C-    C1-    C2
    39      1      2     24      9     0.00   0.00000   0 ;      H-     C-    C1-    O3
    39      1      2     24      9     0.00   1.04600   1 ;      H-     C-    C1-    O3
    39      1      2     40      9     0.00   0.65084   3 ;      H-     C-    C1-    H1
    39      1      6     22      9     0.00   0.00000   0 ;      H-     C-    C5-    O1
    39      1      6     22      9     0.00   1.04600   1 ;      H-     C-    C5-    O1
    39      1      6     44      9     0.00   0.65084   3 ;      H-     C-    C5-    H5
    39      1      6     45      9     0.00   0.65084   3 ;      H-     C-    C5-    H6
    39      1     21      5      9     0.00   1.41001   3 ;      H-     C-     O-    C4
    40      2      3     41      9     0.00   0.65084   3 ;     H1-    C1-    C2-    H2
    40      2     24     52      9     0.00   0.51463   3 ;     H1-    C1-    O3-   H13
    41      3      4     42      9     0.00   0.65084   3 ;     H2-    C2-    C3-    H3
    41      3     25     53      9     0.00   0.51463   3 ;     H2-    C2-    O4-   H14
    42      4      5     43      9     0.00   0.65084   3 ;     H3-    C3-    C4-    H4
    42      4     27     54      9     0.00   0.51463   3 ;     H3-    C3-    O6-   H15
    46      7      8     47      9     0.00   0.65084   3 ;     H7-    C6-    C7-    H8
    47      8      9     48      9     0.00   0.65084   3 ;     H8-    C7-    C8-    H9
    47      8     28     55      9     0.00   0.51463   3 ;     H8-    C7-    O7-   H16
    48      9     10     49      9     0.00   0.65084   3 ;     H9-    C8-    C9-   H10
    48      9     29     56      9     0.00   0.51463   3 ;     H9-    C8-    O8-   H17
    49     10     11     50      9     0.00   0.65084   3 ;    H10-    C9-   C10-   H11
    49     10     11     51      9     0.00   0.65084   3 ;    H10-    C9-   C10-   H12
    49     10     30     59      9     0.00   0.51463   3 ;    H10-    C9-    O9-   H20
    57     12     13     60      9     0.00   0.65084   3 ;    H18-   C11-   C12-   H21
    58     12     13     60      9     0.00   0.65084   3 ;    H19-   C11-   C12-   H21
    60     13     14     61      9     0.00   0.50208   3 ;    H21-   C12-   C13-   H22
    62     16     18     64      9     0.00   0.50208   3 ;    H23-   C15-   C17-   H25
    63     17     19     65      9     0.00   0.50208   3 ;    H24-   C16-   C18-   H26
    64     18     20     66      9     0.00   0.50208   3 ;    H25-   C17-   C19-   H27
    65     19     20     66      9     0.00   0.50208   3 ;    H26-   C18-   C19-   H27
