; rosin_GMX.itp created by acpype (v: 2023.10.27) on Wed May  6 11:24:20 2026

[ atomtypes ]
;name   bond_type     mass     charge   ptype   sigma         epsilon       Amb
 c6       c6          0.00000  0.00000   A     3.39771e-01   4.51035e-01 ; 1.91  0.1078
 c3       c3          0.00000  0.00000   A     3.39771e-01   4.51035e-01 ; 1.91  0.1078
 c2       c2          0.00000  0.00000   A     3.31521e-01   4.13379e-01 ; 1.86  0.0988
 ce       ce          0.00000  0.00000   A     3.31521e-01   4.13379e-01 ; 1.86  0.0988
 ca       ca          0.00000  0.00000   A     3.31521e-01   4.13379e-01 ; 1.86  0.0988
 os       os          0.00000  0.00000   A     3.15610e-01   3.03758e-01 ; 1.77  0.0726
 oh       oh          0.00000  0.00000   A     3.24287e-01   3.89112e-01 ; 1.82  0.0930
 h1       h1          0.00000  0.00000   A     2.42200e-01   8.70272e-02 ; 1.36  0.0208
 h2       h2          0.00000  0.00000   A     2.24382e-01   8.70272e-02 ; 1.26  0.0208
 ho       ho          0.00000  0.00000   A     5.37925e-02   1.96648e-02 ; 0.30  0.0047
 ha       ha          0.00000  0.00000   A     2.62548e-01   6.73624e-02 ; 1.47  0.0161

[ moleculetype ]
;name            nrexcl
 rosin            3

[ atoms ]
;   nr  type  resi  res  atom  cgnr     charge      mass       ; qtot   bond_type
     1   c6     1   UNL     C    1     0.073100     12.01000 ; qtot 0.073
     2   c6     1   UNL    C1    2     0.075100     12.01000 ; qtot 0.148
     3   c6     1   UNL    C2    3     0.131100     12.01000 ; qtot 0.279
     4   c6     1   UNL    C3    4     0.080100     12.01000 ; qtot 0.359
     5   c6     1   UNL    C4    5     0.341900     12.01000 ; qtot 0.701
     6   c3     1   UNL    C5    6     0.137400     12.01000 ; qtot 0.839
     7   c3     1   UNL    C6    7     0.163600     12.01000 ; qtot 1.002
     8   c2     1   UNL    C7    8    -0.154200     12.01000 ; qtot 0.848
     9   ce     1   UNL    C8    9    -0.117200     12.01000 ; qtot 0.731
    10   ca     1   UNL    C9   10    -0.053800     12.01000 ; qtot 0.677
    11   ca     1   UNL   C10   11    -0.119000     12.01000 ; qtot 0.558
    12   ca     1   UNL   C11   12    -0.119000     12.01000 ; qtot 0.439
    13   ca     1   UNL   C12   13    -0.130500     12.01000 ; qtot 0.309
    14   ca     1   UNL   C13   14    -0.130500     12.01000 ; qtot 0.178
    15   ca     1   UNL   C14   15    -0.127000     12.01000 ; qtot 0.051
    16   os     1   UNL     O   16    -0.447600     16.00000 ; qtot -0.396
    17   os     1   UNL    O1   17    -0.398600     16.00000 ; qtot -0.795
    18   oh     1   UNL    O2   18    -0.601800     16.00000 ; qtot -1.397
    19   oh     1   UNL    O3   19    -0.588800     16.00000 ; qtot -1.986
    20   oh     1   UNL    O4   20    -0.588800     16.00000 ; qtot -2.575
    21   oh     1   UNL    O5   21    -0.594800     16.00000 ; qtot -3.169
    22   h1     1   UNL     H   22     0.049700      1.00800 ; qtot -3.120
    23   h1     1   UNL    H1   23     0.107700      1.00800 ; qtot -3.012
    24   h1     1   UNL    H2   24     0.081700      1.00800 ; qtot -2.930
    25   h1     1   UNL    H3   25     0.051700      1.00800 ; qtot -2.878
    26   h2     1   UNL    H4   26     0.059700      1.00800 ; qtot -2.819
    27   h1     1   UNL    H5   27     0.065200      1.00800 ; qtot -2.754
    28   h1     1   UNL    H6   28     0.065200      1.00800 ; qtot -2.688
    29   ho     1   UNL    H7   29     0.424000      1.00800 ; qtot -2.264
    30   ho     1   UNL    H8   30     0.404000      1.00800 ; qtot -1.860
    31   ho     1   UNL    H9   31     0.424000      1.00800 ; qtot -1.436
    32   h1     1   UNL   H10   32     0.046700      1.00800 ; qtot -1.390
    33   h1     1   UNL   H11   33     0.046700      1.00800 ; qtot -1.343
    34   ho     1   UNL   H12   34     0.412000      1.00800 ; qtot -0.931
    35   ha     1   UNL   H13   35     0.148000      1.00800 ; qtot -0.783
    36   ha     1   UNL   H14   36     0.123000      1.00800 ; qtot -0.660
    37   ha     1   UNL   H15   37     0.133000      1.00800 ; qtot -0.527
    38   ha     1   UNL   H16   38     0.133000      1.00800 ; qtot -0.394
    39   ha     1   UNL   H17   39     0.131500      1.00800 ; qtot -0.263
    40   ha     1   UNL   H18   40     0.131500      1.00800 ; qtot -0.131
    41   ha     1   UNL   H19   41     0.131000      1.00800 ; qtot -0.000

[ bonds ]
;   ai     aj funct   r             k
     1      2   1    1.5384e-01    1.8979e+05 ;      C - C1    
     1      3   1    1.5384e-01    1.8979e+05 ;      C - C2    
     1     18   1    1.4241e-01    2.3870e+05 ;      C - O2    
     1     22   1    1.0984e-01    2.8620e+05 ;      C - H     
     2      4   1    1.5384e-01    1.8979e+05 ;     C1 - C3    
     2     19   1    1.4241e-01    2.3870e+05 ;     C1 - O3    
     2     23   1    1.0984e-01    2.8620e+05 ;     C1 - H1    
     3      5   1    1.5384e-01    1.8979e+05 ;     C2 - C4    
     3     20   1    1.4241e-01    2.3870e+05 ;     C2 - O4    
     3     24   1    1.0984e-01    2.8620e+05 ;     C2 - H2    
     4      6   1    1.5428e-01    1.8728e+05 ;     C3 - C5    
     4     16   1    1.4300e-01    2.3412e+05 ;     C3 - O     
     4     25   1    1.0984e-01    2.8620e+05 ;     C3 - H3    
     5     16   1    1.4300e-01    2.3412e+05 ;     C4 - O     
     5     17   1    1.4300e-01    2.3412e+05 ;     C4 - O1    
     5     26   1    1.0985e-01    2.8609e+05 ;     C4 - H4    
     6     21   1    1.4242e-01    2.3861e+05 ;     C5 - O5    
     6     27   1    1.0969e-01    2.8804e+05 ;     C5 - H5    
     6     28   1    1.0969e-01    2.8804e+05 ;     C5 - H6    
     7      8   1    1.5088e-01    2.0786e+05 ;     C6 - C7    
     7     17   1    1.4273e-01    2.3620e+05 ;     C6 - O1    
     7     32   1    1.0969e-01    2.8804e+05 ;     C6 - H10   
     7     33   1    1.0969e-01    2.8804e+05 ;     C6 - H11   
     8      9   1    1.3457e-01    3.5505e+05 ;     C7 - C8    
     8     35   1    1.0882e-01    2.9898e+05 ;     C7 - H13   
     9     10   1    1.4800e-01    2.2748e+05 ;     C8 - C9    
     9     36   1    1.0880e-01    2.9923e+05 ;     C8 - H14   
    10     11   1    1.3986e-01    2.9644e+05 ;     C9 - C10   
    10     12   1    1.3986e-01    2.9644e+05 ;     C9 - C11   
    11     13   1    1.3986e-01    2.9644e+05 ;    C10 - C12   
    11     37   1    1.0860e-01    3.0183e+05 ;    C10 - H15   
    12     14   1    1.3986e-01    2.9644e+05 ;    C11 - C13   
    12     38   1    1.0860e-01    3.0183e+05 ;    C11 - H16   
    13     15   1    1.3986e-01    2.9644e+05 ;    C12 - C14   
    13     39   1    1.0860e-01    3.0183e+05 ;    C12 - H17   
    14     15   1    1.3986e-01    2.9644e+05 ;    C13 - C14   
    14     40   1    1.0860e-01    3.0183e+05 ;    C13 - H18   
    15     41   1    1.0860e-01    3.0183e+05 ;    C14 - H19   
    18     29   1    9.7250e-02    4.4811e+05 ;     O2 - H7    
    19     30   1    9.7250e-02    4.4811e+05 ;     O3 - H8    
    20     31   1    9.7250e-02    4.4811e+05 ;     O4 - H9    
    21     34   1    9.7250e-02    4.4811e+05 ;     O5 - H12   

[ pairs ]
;   ai     aj    funct
     1      6      1 ;      C - C5    
     1     16      1 ;      C - O     
     1     17      1 ;      C - O1    
     1     25      1 ;      C - H3    
     1     26      1 ;      C - H4    
     1     30      1 ;      C - H8    
     1     31      1 ;      C - H9    
     2      5      1 ;     C1 - C4    
     2     20      1 ;     C1 - O4    
     2     21      1 ;     C1 - O5    
     2     24      1 ;     C1 - H2    
     2     27      1 ;     C1 - H5    
     2     28      1 ;     C1 - H6    
     2     29      1 ;     C1 - H7    
     3      4      1 ;     C2 - C3    
     3      7      1 ;     C2 - C6    
     3     19      1 ;     C2 - O3    
     3     23      1 ;     C2 - H1    
     3     29      1 ;     C2 - H7    
     4     17      1 ;     C3 - O1    
     4     26      1 ;     C3 - H4    
     4     30      1 ;     C3 - H8    
     4     34      1 ;     C3 - H12   
     5      6      1 ;     C4 - C5    
     5      8      1 ;     C4 - C7    
     5     25      1 ;     C4 - H3    
     5     31      1 ;     C4 - H9    
     5     32      1 ;     C4 - H10   
     5     33      1 ;     C4 - H11   
     6     19      1 ;     C5 - O3    
     6     23      1 ;     C5 - H1    
     7     10      1 ;     C6 - C9    
     7     16      1 ;     C6 - O     
     7     26      1 ;     C6 - H4    
     7     36      1 ;     C6 - H14   
     8     11      1 ;     C7 - C10   
     8     12      1 ;     C7 - C11   
     9     13      1 ;     C8 - C12   
     9     14      1 ;     C8 - C13   
     9     17      1 ;     C8 - O1    
     9     32      1 ;     C8 - H10   
     9     33      1 ;     C8 - H11   
     9     37      1 ;     C8 - H15   
     9     38      1 ;     C8 - H16   
    10     15      1 ;     C9 - C14   
    10     35      1 ;     C9 - H13   
    10     39      1 ;     C9 - H17   
    10     40      1 ;     C9 - H18   
    11     14      1 ;    C10 - C13   
    11     36      1 ;    C10 - H14   
    11     38      1 ;    C10 - H16   
    11     41      1 ;    C10 - H19   
    12     13      1 ;    C11 - C12   
    12     36      1 ;    C11 - H14   
    12     37      1 ;    C11 - H15   
    12     41      1 ;    C11 - H19   
    13     40      1 ;    C12 - H18   
    14     39      1 ;    C13 - H17   
    15     37      1 ;    C14 - H15   
    15     38      1 ;    C14 - H16   
    16     19      1 ;      O - O3    
    16     20      1 ;      O - O4    
    16     21      1 ;      O - O5    
    16     23      1 ;      O - H1    
    16     24      1 ;      O - H2    
    16     27      1 ;      O - H5    
    16     28      1 ;      O - H6    
    17     20      1 ;     O1 - O4    
    17     24      1 ;     O1 - H2    
    17     35      1 ;     O1 - H13   
    18      4      1 ;     O2 - C3    
    18      5      1 ;     O2 - C4    
    18     19      1 ;     O2 - O3    
    18     20      1 ;     O2 - O4    
    18     23      1 ;     O2 - H1    
    18     24      1 ;     O2 - H2    
    19     25      1 ;     O3 - H3    
    20     26      1 ;     O4 - H4    
    21     25      1 ;     O5 - H3    
    22      4      1 ;      H - C3    
    22      5      1 ;      H - C4    
    22     19      1 ;      H - O3    
    22     20      1 ;      H - O4    
    22     23      1 ;      H - H1    
    22     24      1 ;      H - H2    
    22     29      1 ;      H - H7    
    23     25      1 ;     H1 - H3    
    23     30      1 ;     H1 - H8    
    24     26      1 ;     H2 - H4    
    24     31      1 ;     H2 - H9    
    25     27      1 ;     H3 - H5    
    25     28      1 ;     H3 - H6    
    27     34      1 ;     H5 - H12   
    28     34      1 ;     H6 - H12   
    32     35      1 ;    H10 - H13   
    33     35      1 ;    H11 - H13   
    35     36      1 ;    H13 - H14   
    37     39      1 ;    H15 - H17   
    38     40      1 ;    H16 - H18   
    39     41      1 ;    H17 - H19   
    40     41      1 ;    H18 - H19   

[ angles ]
;   ai     aj     ak    funct   theta         cth
     1      2      4      1    1.1106e+02    5.0359e+02 ;      C - C1     - C3    
     1      2     19      1    1.1005e+02    6.4065e+02 ;      C - C1     - O3    
     1      2     23      1    1.0918e+02    3.6217e+02 ;      C - C1     - H1    
     1      3      5      1    1.1106e+02    5.0359e+02 ;      C - C2     - C4    
     1      3     20      1    1.1005e+02    6.4065e+02 ;      C - C2     - O4    
     1      3     24      1    1.0918e+02    3.6217e+02 ;      C - C2     - H2    
     1     18     29      1    1.0707e+02    5.4584e+02 ;      C - O2     - H7    
     2      1      3      1    1.1106e+02    5.0359e+02 ;     C1 - C      - C2    
     2      1     18      1    1.1005e+02    6.4065e+02 ;     C1 - C      - O2    
     2      1     22      1    1.0918e+02    3.6217e+02 ;     C1 - C      - H     
     2      4      6      1    1.1143e+02    5.0200e+02 ;     C1 - C3     - C5    
     2      4     16      1    1.1009e+02    6.3948e+02 ;     C1 - C3     - O     
     2      4     25      1    1.0918e+02    3.6217e+02 ;     C1 - C3     - H3    
     2     19     30      1    1.0707e+02    5.4584e+02 ;     C1 - O3     - H8    
     3      1     18      1    1.1005e+02    6.4065e+02 ;     C2 - C      - O2    
     3      1     22      1    1.0918e+02    3.6217e+02 ;     C2 - C      - H     
     3      5     16      1    1.1009e+02    6.3948e+02 ;     C2 - C4     - O     
     3      5     17      1    1.1009e+02    6.3948e+02 ;     C2 - C4     - O1    
     3      5     26      1    1.0998e+02    3.6083e+02 ;     C2 - C4     - H4    
     3     20     31      1    1.0707e+02    5.4584e+02 ;     C2 - O4     - H9    
     4      2     19      1    1.1005e+02    6.4065e+02 ;     C3 - C1     - O3    
     4      2     23      1    1.0918e+02    3.6217e+02 ;     C3 - C1     - H1    
     4      6     21      1    1.1145e+02    6.3555e+02 ;     C3 - C5     - O5    
     4      6     27      1    1.0913e+02    3.6141e+02 ;     C3 - C5     - H5    
     4      6     28      1    1.0913e+02    3.6141e+02 ;     C3 - C5     - H6    
     4     16      5      1    1.1330e+02    7.3873e+02 ;     C3 - O      - C4    
     5      3     20      1    1.1005e+02    6.4065e+02 ;     C4 - C2     - O4    
     5      3     24      1    1.0918e+02    3.6217e+02 ;     C4 - C2     - H2    
     5     17      7      1    1.1513e+02    7.3354e+02 ;     C4 - O1     - C6    
     6      4     16      1    1.0683e+02    6.4810e+02 ;     C5 - C3     - O     
     6      4     25      1    1.0855e+02    3.6233e+02 ;     C5 - C3     - H3    
     6     21     34      1    1.0739e+02    5.4501e+02 ;     C5 - O5     - H12   
     7      8      9      1    1.2558e+02    5.0710e+02 ;     C6 - C7     - C8    
     7      8     35      1    1.1505e+02    3.5941e+02 ;     C6 - C7     - H13   
     8      7     17      1    1.0821e+02    6.5287e+02 ;     C7 - C6     - O1    
     8      7     32      1    1.0996e+02    3.6727e+02 ;     C7 - C6     - H10   
     8      7     33      1    1.0996e+02    3.6727e+02 ;     C7 - C6     - H11   
     8      9     10      1    1.2298e+02    5.1873e+02 ;     C7 - C8     - C9    
     8      9     36      1    1.2000e+02    3.8694e+02 ;     C7 - C8     - H14   
     9      8     35      1    1.2049e+02    3.8618e+02 ;     C8 - C7     - H13   
     9     10     11      1    1.2079e+02    5.1530e+02 ;     C8 - C9     - C10   
     9     10     12      1    1.2079e+02    5.1530e+02 ;     C8 - C9     - C11   
    10      9     36      1    1.1503e+02    3.6560e+02 ;     C9 - C8     - H14   
    10     11     13      1    1.2002e+02    5.3279e+02 ;     C9 - C10    - C12   
    10     11     37      1    1.1988e+02    3.7572e+02 ;     C9 - C10    - H15   
    10     12     14      1    1.2002e+02    5.3279e+02 ;     C9 - C11    - C13   
    10     12     38      1    1.1988e+02    3.7572e+02 ;     C9 - C11    - H16   
    11     10     12      1    1.2002e+02    5.3279e+02 ;    C10 - C9     - C11   
    11     13     15      1    1.2002e+02    5.3279e+02 ;    C10 - C12    - C14   
    11     13     39      1    1.1988e+02    3.7572e+02 ;    C10 - C12    - H17   
    12     14     15      1    1.2002e+02    5.3279e+02 ;    C11 - C13    - C14   
    12     14     40      1    1.1988e+02    3.7572e+02 ;    C11 - C13    - H18   
    13     11     37      1    1.1988e+02    3.7572e+02 ;    C12 - C10    - H15   
    13     15     14      1    1.2002e+02    5.3279e+02 ;    C12 - C14    - C13   
    13     15     41      1    1.1988e+02    3.7572e+02 ;    C12 - C14    - H19   
    14     12     38      1    1.1988e+02    3.7572e+02 ;    C13 - C11    - H16   
    14     15     41      1    1.1988e+02    3.7572e+02 ;    C13 - C14    - H19   
    15     13     39      1    1.1988e+02    3.7572e+02 ;    C14 - C12    - H17   
    15     14     40      1    1.1988e+02    3.7572e+02 ;    C14 - C13    - H18   
    16      4     25      1    1.0808e+02    4.7430e+02 ;      O - C3     - H3    
    16      5     17      1    1.0950e+02    8.1613e+02 ;      O - C4     - O1    
    16      5     26      1    1.0944e+02    4.7137e+02 ;      O - C4     - H4    
    17      5     26      1    1.0944e+02    4.7137e+02 ;     O1 - C4     - H4    
    17      7     32      1    1.1034e+02    4.7028e+02 ;     O1 - C6     - H10   
    17      7     33      1    1.1034e+02    4.7028e+02 ;     O1 - C6     - H11   
    18      1     22      1    1.0996e+02    4.7187e+02 ;     O2 - C      - H     
    19      2     23      1    1.0996e+02    4.7187e+02 ;     O3 - C1     - H1    
    20      3     24      1    1.0996e+02    4.7187e+02 ;     O4 - C2     - H2    
    21      6     27      1    1.1038e+02    4.7103e+02 ;     O5 - C5     - H5    
    21      6     28      1    1.1038e+02    4.7103e+02 ;     O5 - C5     - H6    
    27      6     28      1    1.0855e+02    2.9824e+02 ;     H5 - C5     - H6    
    32      7     33      1    1.0855e+02    2.9824e+02 ;    H10 - C6     - H11   

[ dihedrals ] ; propers
; for gromacs 4.5 or higher, using funct 9
;    i      j      k      l   func   phase     kd      pn
     1      2      4      6      9     0.00   2.17568   3 ;      C-    C1-    C3-    C5
     1      2      4     16      9     0.00   0.65084   3 ;      C-    C1-    C3-     O
     1      2      4     25      9     0.00   0.65084   3 ;      C-    C1-    C3-    H3
     1      2     19     30      9     0.00   0.25104   3 ;      C-    C1-    O3-    H8
     1      3      5     16      9     0.00   0.65084   3 ;      C-    C2-    C4-     O
     1      3      5     17      9     0.00   0.65084   3 ;      C-    C2-    C4-    O1
     1      3      5     26      9     0.00   0.65084   3 ;      C-    C2-    C4-    H4
     1      3     20     31      9     0.00   0.25104   3 ;      C-    C2-    O4-    H9
     2      1      3      5      9     0.00   2.17568   3 ;     C1-     C-    C2-    C4
     2      1      3     20      9     0.00   0.75312   3 ;     C1-     C-    C2-    O4
     2      1      3     24      9     0.00   0.65084   3 ;     C1-     C-    C2-    H2
     2      1     18     29      9     0.00   0.25104   3 ;     C1-     C-    O2-    H7
     2      4      6     21      9     0.00   0.75312   3 ;     C1-    C3-    C5-    O5
     2      4      6     27      9     0.00   0.65084   3 ;     C1-    C3-    C5-    H5
     2      4      6     28      9     0.00   0.65084   3 ;     C1-    C3-    C5-    H6
     2      4     16      5      9     0.00   4.85344   3 ;     C1-    C3-     O-    C4
     2      4     16      5      9     0.00   5.77392   2 ;     C1-    C3-     O-    C4
     2      4     16      5      9   180.00   1.46440   1 ;     C1-    C3-     O-    C4
     3      1      2      4      9     0.00   2.17568   3 ;     C2-     C-    C1-    C3
     3      1      2     19      9     0.00   0.75312   3 ;     C2-     C-    C1-    O3
     3      1      2     23      9     0.00   0.65084   3 ;     C2-     C-    C1-    H1
     3      1     18     29      9     0.00   0.25104   3 ;     C2-     C-    O2-    H7
     3      5     16      4      9     0.00   4.85344   3 ;     C2-    C4-     O-    C3
     3      5     16      4      9     0.00   5.77392   2 ;     C2-    C4-     O-    C3
     3      5     16      4      9   180.00   1.46440   1 ;     C2-    C4-     O-    C3
     3      5     17      7      9     0.00   0.33472   2 ;     C2-    C4-    O1-    C6
     3      5     17      7      9     0.00   3.13800   3 ;     C2-    C4-    O1-    C6
     3      5     17      7      9   180.00   3.68192   1 ;     C2-    C4-    O1-    C6
     4      2     19     30      9     0.00   0.25104   3 ;     C3-    C1-    O3-    H8
     4      6     21     34      9     0.00   0.25104   3 ;     C3-    C5-    O5-   H12
     4     16      5     17      9     0.00   0.12552   3 ;     C3-     O-    C4-    O1
     4     16      5     17      9     0.00   6.23416   2 ;     C3-     O-    C4-    O1
     4     16      5     17      9   180.00   3.68192   1 ;     C3-     O-    C4-    O1
     4     16      5     26      9     0.00   1.60387   3 ;     C3-     O-    C4-    H4
     5      3     20     31      9     0.00   0.25104   3 ;     C4-    C2-    O4-    H9
     5     16      4      6      9     0.00   0.33472   2 ;     C4-     O-    C3-    C5
     5     16      4      6      9     0.00   3.13800   3 ;     C4-     O-    C3-    C5
     5     16      4      6      9   180.00   3.68192   1 ;     C4-     O-    C3-    C5
     5     16      4     25      9     0.00   1.41001   3 ;     C4-     O-    C3-    H3
     5     17      7      8      9     0.00   1.60387   3 ;     C4-    O1-    C6-    C7
     5     17      7     32      9     0.00   1.41001   3 ;     C4-    O1-    C6-   H10
     5     17      7     33      9     0.00   1.41001   3 ;     C4-    O1-    C6-   H11
     6      4      2     19      9     0.00   0.75312   3 ;     C5-    C3-    C1-    O3
     6      4      2     23      9     0.00   0.65084   3 ;     C5-    C3-    C1-    H1
     7      8      9     10      9   180.00  27.82360   2 ;     C6-    C7-    C8-    C9
     7      8      9     36      9   180.00  27.82360   2 ;     C6-    C7-    C8-   H14
     7     17      5     16      9     0.00   3.55640   2 ;     C6-    O1-    C4-     O
     7     17      5     16      9     0.00   3.55640   3 ;     C6-    O1-    C4-     O
     7     17      5     16      9   180.00   1.92464   1 ;     C6-    O1-    C4-     O
     7     17      5     26      9     0.00   1.60387   3 ;     C6-    O1-    C4-    H4
     8      9     10     11      9   180.00   2.44764   2 ;     C7-    C8-    C9-   C10
     8      9     10     12      9   180.00   2.44764   2 ;     C7-    C8-    C9-   C11
     9      8      7     17      9     0.00   0.00000   0 ;     C8-    C7-    C6-    O1
     9      8      7     32      9     0.00   0.00000   0 ;     C8-    C7-    C6-   H10
     9      8      7     33      9     0.00   0.00000   0 ;     C8-    C7-    C6-   H11
     9     10     11     13      9   180.00  15.16700   2 ;     C8-    C9-   C10-   C12
     9     10     11     37      9   180.00  15.16700   2 ;     C8-    C9-   C10-   H15
     9     10     12     14      9   180.00  15.16700   2 ;     C8-    C9-   C11-   C13
     9     10     12     38      9   180.00  15.16700   2 ;     C8-    C9-   C11-   H16
    10      9      8     35      9   180.00  27.82360   2 ;     C9-    C8-    C7-   H13
    10     11     13     15      9   180.00  15.16700   2 ;     C9-   C10-   C12-   C14
    10     11     13     39      9   180.00  15.16700   2 ;     C9-   C10-   C12-   H17
    10     12     14     15      9   180.00  15.16700   2 ;     C9-   C11-   C13-   C14
    10     12     14     40      9   180.00  15.16700   2 ;     C9-   C11-   C13-   H18
    11     10      9     36      9   180.00   2.92880   2 ;    C10-    C9-    C8-   H14
    11     10     12     14      9   180.00  15.16700   2 ;    C10-    C9-   C11-   C13
    11     10     12     38      9   180.00  15.16700   2 ;    C10-    C9-   C11-   H16
    11     13     15     14      9   180.00  15.16700   2 ;    C10-   C12-   C14-   C13
    11     13     15     41      9   180.00  15.16700   2 ;    C10-   C12-   C14-   H19
    12     10      9     36      9   180.00   2.92880   2 ;    C11-    C9-    C8-   H14
    12     10     11     13      9   180.00  15.16700   2 ;    C11-    C9-   C10-   C12
    12     10     11     37      9   180.00  15.16700   2 ;    C11-    C9-   C10-   H15
    12     14     15     13      9   180.00  15.16700   2 ;    C11-   C13-   C14-   C12
    12     14     15     41      9   180.00  15.16700   2 ;    C11-   C13-   C14-   H19
    13     15     14     40      9   180.00  15.16700   2 ;    C12-   C14-   C13-   H18
    14     15     13     39      9   180.00  15.16700   2 ;    C13-   C14-   C12-   H17
    15     13     11     37      9   180.00  15.16700   2 ;    C14-   C12-   C10-   H15
    15     14     12     38      9   180.00  15.16700   2 ;    C14-   C13-   C11-   H16
    16      4      2     19      9     0.00   4.47688   3 ;      O-    C3-    C1-    O3
    16      4      2     19      9   180.00   2.80328   1 ;      O-    C3-    C1-    O3
    16      4      2     19      9   180.00   3.05432   2 ;      O-    C3-    C1-    O3
    16      4      2     23      9     0.00   0.00000   0 ;      O-    C3-    C1-    H1
    16      4      2     23      9     0.00   1.04600   1 ;      O-    C3-    C1-    H1
    16      4      6     21      9     0.00   4.47688   3 ;      O-    C3-    C5-    O5
    16      4      6     21      9   180.00   2.80328   1 ;      O-    C3-    C5-    O5
    16      4      6     21      9   180.00   3.05432   2 ;      O-    C3-    C5-    O5
    16      4      6     27      9     0.00   0.00000   0 ;      O-    C3-    C5-    H5
    16      4      6     27      9     0.00   1.04600   1 ;      O-    C3-    C5-    H5
    16      4      6     28      9     0.00   0.00000   0 ;      O-    C3-    C5-    H6
    16      4      6     28      9     0.00   1.04600   1 ;      O-    C3-    C5-    H6
    16      5      3     20      9     0.00   4.47688   3 ;      O-    C4-    C2-    O4
    16      5      3     20      9   180.00   2.80328   1 ;      O-    C4-    C2-    O4
    16      5      3     20      9   180.00   3.05432   2 ;      O-    C4-    C2-    O4
    16      5      3     24      9     0.00   0.00000   0 ;      O-    C4-    C2-    H2
    16      5      3     24      9     0.00   1.04600   1 ;      O-    C4-    C2-    H2
    17      5      3     20      9     0.00   4.47688   3 ;     O1-    C4-    C2-    O4
    17      5      3     20      9   180.00   2.80328   1 ;     O1-    C4-    C2-    O4
    17      5      3     20      9   180.00   3.05432   2 ;     O1-    C4-    C2-    O4
    17      5      3     24      9     0.00   0.00000   0 ;     O1-    C4-    C2-    H2
    17      5      3     24      9     0.00   1.04600   1 ;     O1-    C4-    C2-    H2
    17      7      8     35      9     0.00   0.00000   0 ;     O1-    C6-    C7-   H13
    18      1      2      4      9     0.00   0.75312   3 ;     O2-     C-    C1-    C3
    18      1      2     19      9     0.00   4.18400   1 ;     O2-     C-    C1-    O3
    18      1      2     19      9     0.00   6.02496   3 ;     O2-     C-    C1-    O3
    18      1      2     23      9     0.00   0.00000   0 ;     O2-     C-    C1-    H1
    18      1      2     23      9     0.00   1.04600   1 ;     O2-     C-    C1-    H1
    18      1      3      5      9     0.00   0.75312   3 ;     O2-     C-    C2-    C4
    18      1      3     20      9     0.00   4.18400   1 ;     O2-     C-    C2-    O4
    18      1      3     20      9     0.00   6.02496   3 ;     O2-     C-    C2-    O4
    18      1      3     24      9     0.00   0.00000   0 ;     O2-     C-    C2-    H2
    18      1      3     24      9     0.00   1.04600   1 ;     O2-     C-    C2-    H2
    19      2      4     25      9     0.00   0.00000   0 ;     O3-    C1-    C3-    H3
    19      2      4     25      9     0.00   1.04600   1 ;     O3-    C1-    C3-    H3
    20      3      5     26      9     0.00   0.65084   3 ;     O4-    C2-    C4-    H4
    21      6      4     25      9     0.00   0.00000   0 ;     O5-    C5-    C3-    H3
    21      6      4     25      9     0.00   1.04600   1 ;     O5-    C5-    C3-    H3
    22      1      2      4      9     0.00   0.65084   3 ;      H-     C-    C1-    C3
    22      1      2     19      9     0.00   0.00000   0 ;      H-     C-    C1-    O3
    22      1      2     19      9     0.00   1.04600   1 ;      H-     C-    C1-    O3
    22      1      2     23      9     0.00   0.65084   3 ;      H-     C-    C1-    H1
    22      1      3      5      9     0.00   0.65084   3 ;      H-     C-    C2-    C4
    22      1      3     20      9     0.00   0.00000   0 ;      H-     C-    C2-    O4
    22      1      3     20      9     0.00   1.04600   1 ;      H-     C-    C2-    O4
    22      1      3     24      9     0.00   0.65084   3 ;      H-     C-    C2-    H2
    22      1     18     29      9     0.00   0.51463   3 ;      H-     C-    O2-    H7
    23      2      4     25      9     0.00   0.65084   3 ;     H1-    C1-    C3-    H3
    23      2     19     30      9     0.00   0.51463   3 ;     H1-    C1-    O3-    H8
    24      3      5     26      9     0.00   0.65084   3 ;     H2-    C2-    C4-    H4
    24      3     20     31      9     0.00   0.51463   3 ;     H2-    C2-    O4-    H9
    25      4      6     27      9     0.00   0.65084   3 ;     H3-    C3-    C5-    H5
    25      4      6     28      9     0.00   0.65084   3 ;     H3-    C3-    C5-    H6
    27      6     21     34      9     0.00   0.51463   3 ;     H5-    C5-    O5-   H12
    28      6     21     34      9     0.00   0.51463   3 ;     H6-    C5-    O5-   H12
    32      7      8     35      9     0.00   0.00000   0 ;    H10-    C6-    C7-   H13
    33      7      8     35      9     0.00   0.00000   0 ;    H11-    C6-    C7-   H13
    35      8      9     36      9   180.00  27.82360   2 ;    H13-    C7-    C8-   H14
    37     11     13     39      9   180.00  15.16700   2 ;    H15-   C10-   C12-   H17
    38     12     14     40      9   180.00  15.16700   2 ;    H16-   C11-   C13-   H18
    39     13     15     41      9   180.00  15.16700   2 ;    H17-   C12-   C14-   H19
    40     14     15     41      9   180.00  15.16700   2 ;    H18-   C13-   C14-   H19

[ dihedrals ] ; impropers
; treated as propers in GROMACS to use correct AMBER analytical function
;    i      j      k      l   func   phase     kd      pn
     7      9      8     35      4   180.00   4.60240   2 ;     C6-    C8-    C7-   H13
     8     10      9     36      4   180.00   4.60240   2 ;     C7-    C9-    C8-   H14
    10     13     11     37      4   180.00   4.60240   2 ;     C9-   C12-   C10-   H15
    10     14     12     38      4   180.00   4.60240   2 ;     C9-   C13-   C11-   H16
    11     12     10      9      4   180.00   4.60240   2 ;    C10-   C11-    C9-    C8
    11     15     13     39      4   180.00   4.60240   2 ;    C10-   C14-   C12-   H17
    12     15     14     40      4   180.00   4.60240   2 ;    C11-   C14-   C13-   H18
    13     14     15     41      4   180.00   4.60240   2 ;    C12-   C13-   C14-   H19
