{\rtf1\ansi\ansicpg1252\cocoartf2822
\cocoatextscaling0\cocoaplatform0{\fonttbl\f0\fswiss\fcharset0 Helvetica;}
{\colortbl;\red255\green255\blue255;}
{\*\expandedcolortbl;;}
\paperw11900\paperh16840\margl1440\margr1440\vieww28600\viewh15060\viewkind0
\pard\tx566\tx1133\tx1700\tx2267\tx2834\tx3401\tx3968\tx4535\tx5102\tx5669\tx6236\tx6803\pardirnatural\partightenfactor0

\f0\fs24 \cf0 integrator  = md\
dt          = 0.002\
nsteps      = 500000   ; 1 ns\
\
tcoupl      = V-rescale\
tc-grps     = System\
tau_t       = 0.1\
ref_t       = 300\
\
pcoupl      = Parrinello-Rahman\
pcoupltype  = isotropic\
tau_p       = 2.0\
ref_p       = 1.0\
compressibility = 4.5e-5\
\
constraints = h-bonds\
\
nstxout-compressed = 1000\
nstenergy          = 1000\
nstlog             = 1000\
}