l-ara_GMX.gro created by acpype (v: 2023.10.27) on Wed May  6 16:19:13 2026
 20
    1  UNL    O    1   0.513  -0.085   0.000
    1  UNL   O1    2   0.198   0.038  -0.075
    1  UNL   O2    3   0.438   0.169  -0.178
    1  UNL   O3    4   0.208  -0.108   0.091
    1  UNL   O4    5   0.656   0.032  -0.040
    1  UNL    C    6   0.340   0.015   0.000
    1  UNL   C1    7   0.431   0.036  -0.124
    1  UNL   C2    8   0.340  -0.085   0.000
    1  UNL   C3    9   0.513   0.015   0.000
    1  UNL   C4   10   0.439  -0.125   0.107
    1  UNL    H   11   0.340   0.078   0.000
    1  UNL   H1   12   0.431  -0.039  -0.205
    1  UNL   H2   13   0.340  -0.147   0.000
    1  UNL   H3   14   0.513   0.078   0.000
    1  UNL   H4   15   0.450  -0.232   0.127
    1  UNL   H5   16   0.444  -0.066   0.201
    1  UNL   H6   17   0.139   0.062  -0.000
    1  UNL   H7   18   0.530   0.179  -0.206
    1  UNL   H8   19   0.142  -0.136   0.023
    1  UNL   H9   20   0.706   0.001   0.037
   11.33600     8.23200     8.13200
