rosavin_GMX.gro created by acpype (v: 2023.10.27) on Wed May  6 11:19:01 2026
 66
    1  UNL    C    1   0.222  -0.174   0.115
    1  UNL   C1    2   0.280  -0.264   0.005
    1  UNL   C2    3   0.180  -0.375  -0.027
    1  UNL   C3    4   0.042  -0.319  -0.060
    1  UNL   C4    5  -0.004  -0.221   0.049
    1  UNL   C5    6   0.315  -0.055   0.146
    1  UNL   C6    7   0.417   0.138   0.053
    1  UNL   C7    8   0.448   0.213  -0.079
    1  UNL   C8    9   0.326   0.292  -0.131
    1  UNL   C9   10   0.266   0.377  -0.017
    1  UNL  C10   11   0.239   0.288   0.104
    1  UNL  C11   12  -0.182  -0.073   0.100
    1  UNL  C12   13  -0.305  -0.013   0.041
    1  UNL  C13   14  -0.429  -0.027   0.092
    1  UNL  C14   15  -0.551   0.032   0.035
    1  UNL  C15   16  -0.567   0.057  -0.102
    1  UNL  C16   17  -0.658   0.061   0.121
    1  UNL  C17   18  -0.686   0.111  -0.151
    1  UNL  C18   19  -0.777   0.115   0.072
    1  UNL  C19   20  -0.791   0.140  -0.064
    1  UNL    O   21   0.095  -0.122   0.077
    1  UNL   O1   22   0.334   0.024   0.029
    1  UNL   O2   23   0.361   0.228   0.150
    1  UNL   O3   24   0.404  -0.324   0.045
    1  UNL   O4   25   0.228  -0.454  -0.137
    1  UNL   O5   26  -0.123  -0.156   0.002
    1  UNL   O6   27  -0.048  -0.430  -0.072
    1  UNL   O7   28   0.558   0.304  -0.059
    1  UNL   O8   29   0.227   0.204  -0.183
    1  UNL   O9   30   0.149   0.446  -0.061
    1  UNL  H01   31  -0.385  -0.062   0.097
    1  UNL  H02   32  -0.378   0.007   0.002
    1  UNL  H03   33  -0.462   0.083  -0.002
    1  UNL  H04   34  -0.537   0.093  -0.003
    1  UNL  H05   35  -0.601   0.021   0.037
    1  UNL  H06   36  -0.677   0.203  -0.094
    1  UNL  H07   37  -0.734   0.215   0.066
    1  UNL  H08   38  -0.820   0.245  -0.072
    1  UNL    H   39   0.210  -0.231   0.208
    1  UNL   H1   40   0.300  -0.207  -0.086
    1  UNL   H2   41   0.173  -0.445   0.057
    1  UNL   H3   42   0.044  -0.269  -0.158
    1  UNL   H4   43  -0.028  -0.276   0.141
    1  UNL   H5   44   0.412  -0.091   0.183
    1  UNL   H6   45   0.268   0.006   0.224
    1  UNL   H7   46   0.512   0.103   0.095
    1  UNL   H8   47   0.479   0.140  -0.155
    1  UNL   H9   48   0.355   0.359  -0.212
    1  UNL  H10   49   0.339   0.454   0.011
    1  UNL  H11   50   0.163   0.212   0.084
    1  UNL  H12   51   0.200   0.349   0.186
    1  UNL  H13   52   0.389  -0.379   0.124
    1  UNL  H14   53   0.325  -0.459  -0.128
    1  UNL  H15   54  -0.009  -0.488  -0.141
    1  UNL  H16   55   0.548   0.342   0.030
    1  UNL  H17   56   0.262   0.164  -0.265
    1  UNL  H18   57  -0.206  -0.132   0.190
    1  UNL  H19   58  -0.114   0.008   0.128
    1  UNL  H20   59   0.103   0.481   0.017
    1  UNL  H21   60  -0.288   0.046  -0.049
    1  UNL  H22   61  -0.443  -0.086   0.182
    1  UNL  H23   62  -0.488   0.033  -0.172
    1  UNL  H24   63  -0.649   0.042   0.228
    1  UNL  H25   64  -0.697   0.129  -0.258
    1  UNL  H26   65  -0.859   0.137   0.140
    1  UNL  H27   66  -0.883   0.182  -0.103
   28.82600    19.37800     9.85800
