rosin_GMX.gro created by acpype (v: 2023.10.27) on Wed May  6 11:24:20 2026
 41
    1  UNL    C    1   0.396   0.135  -0.033
    1  UNL   C1    2   0.453   0.008   0.030
    1  UNL   C2    3   0.246   0.152  -0.003
    1  UNL   C3    4   0.367  -0.112  -0.011
    1  UNL   C4    5   0.170   0.022  -0.033
    1  UNL   C5    6   0.415  -0.242   0.054
    1  UNL   C6    7  -0.047  -0.070  -0.034
    1  UNL   C7    8  -0.186  -0.044   0.014
    1  UNL   C8    9  -0.293  -0.035  -0.067
    1  UNL   C9   10  -0.431  -0.013  -0.023
    1  UNL  C10   11  -0.463   0.056   0.095
    1  UNL  C11   12  -0.536  -0.058  -0.105
    1  UNL  C12   13  -0.597   0.077   0.131
    1  UNL  C13   14  -0.670  -0.037  -0.069
    1  UNL  C14   15  -0.700   0.030   0.050
    1  UNL    O   16   0.231  -0.091   0.030
    1  UNL   O1   17   0.036   0.034   0.015
    1  UNL   O2   18   0.468   0.250   0.011
    1  UNL   O3   19   0.589  -0.006  -0.010
    1  UNL   O4   20   0.193   0.258  -0.085
    1  UNL   O5   21   0.331  -0.349   0.010
    1  UNL    H   22   0.411   0.132  -0.142
    1  UNL   H1   23   0.453   0.019   0.140
    1  UNL   H2   24   0.232   0.182   0.102
    1  UNL   H3   25   0.369  -0.126  -0.120
    1  UNL   H4   26   0.167   0.007  -0.142
    1  UNL   H5   27   0.407  -0.237   0.163
    1  UNL   H6   28   0.518  -0.265   0.026
    1  UNL   H7   29   0.561   0.221   0.025
    1  UNL   H8   30   0.593  -0.023  -0.106
    1  UNL   H9   31   0.268   0.314  -0.112
    1  UNL  H10   32  -0.013  -0.167   0.006
    1  UNL  H11   33  -0.043  -0.074  -0.143
    1  UNL  H12   34   0.240  -0.322   0.032
    1  UNL  H13   35  -0.197  -0.035   0.122
    1  UNL  H14   36  -0.279  -0.047  -0.175
    1  UNL  H15   37  -0.385   0.095   0.159
    1  UNL  H16   38  -0.514  -0.110  -0.198
    1  UNL  H17   39  -0.620   0.129   0.224
    1  UNL  H18   40  -0.749  -0.073  -0.133
    1  UNL  H19   41  -0.803   0.046   0.078
   27.92200    13.27000     8.42400
