 3976
    1UNL      C    1   2.009   1.535   1.829
    1UNL     C1    2   2.067   1.445   1.719
    1UNL     C2    3   1.967   1.334   1.687
    1UNL     C3    4   1.829   1.390   1.654
    1UNL     C4    5   1.783   1.488   1.763
    1UNL     C5    6   2.102   1.654   1.860
    1UNL     C6    7   2.204   1.847   1.767
    1UNL     C7    8   2.235   1.922   1.635
    1UNL     C8    9   2.113   2.001   1.583
    1UNL     C9   10   2.053   2.086   1.697
    1UNL    C10   11   2.026   1.997   1.818
    1UNL    C11   12   1.605   1.636   1.814
    1UNL    C12   13   1.482   1.696   1.755
    1UNL    C13   14   1.358   1.682   1.806
    1UNL    C14   15   1.236   1.741   1.749
    1UNL    C15   16   1.220   1.766   1.612
    1UNL    C16   17   1.129   1.770   1.835
    1UNL    C17   18   1.101   1.820   1.563
    1UNL    C18   19   1.010   1.824   1.786
    1UNL    C19   20   0.996   1.849   1.650
    1UNL      O   21   1.882   1.587   1.791
    1UNL     O1   22   2.121   1.733   1.743
    1UNL     O2   23   2.148   1.937   1.864
    1UNL     O3   24   2.191   1.385   1.759
    1UNL     O4   25   2.015   1.255   1.577
    1UNL     O5   26   1.664   1.553   1.716
    1UNL     O6   27   1.739   1.279   1.642
    1UNL     O7   28   2.345   2.013   1.655
    1UNL     O8   29   2.014   1.913   1.531
    1UNL     O9   30   1.936   2.155   1.653
    1UNL    H01   31   1.402   1.647   1.811
    1UNL    H02   32   1.409   1.716   1.716
    1UNL    H03   33   1.325   1.792   1.712
    1UNL    H04   34   1.250   1.802   1.711
    1UNL    H05   35   1.186   1.730   1.751
    1UNL    H06   36   1.110   1.912   1.620
    1UNL    H07   37   1.053   1.924   1.780
    1UNL    H08   38   0.967   1.954   1.642
    1UNL      H   39   1.997   1.478   1.922
    1UNL     H1   40   2.087   1.502   1.628
    1UNL     H2   41   1.960   1.264   1.771
    1UNL     H3   42   1.831   1.440   1.556
    1UNL     H4   43   1.759   1.433   1.855
    1UNL     H5   44   2.199   1.618   1.897
    1UNL     H6   45   2.055   1.715   1.938
    1UNL     H7   46   2.299   1.812   1.809
    1UNL     H8   47   2.266   1.849   1.559
    1UNL     H9   48   2.142   2.068   1.502
    1UNL    H10   49   2.126   2.163   1.725
    1UNL    H11   50   1.950   1.921   1.798
    1UNL    H12   51   1.987   2.058   1.900
    1UNL    H13   52   2.176   1.330   1.838
    1UNL    H14   53   2.112   1.250   1.586
    1UNL    H15   54   1.778   1.221   1.573
    1UNL    H16   55   2.335   2.051   1.744
    1UNL    H17   56   2.049   1.873   1.449
    1UNL    H18   57   1.581   1.577   1.904
    1UNL    H19   58   1.673   1.717   1.842
    1UNL    H20   59   1.890   2.190   1.731
    1UNL    H21   60   1.499   1.755   1.665
    1UNL    H22   61   1.344   1.623   1.896
    1UNL    H23   62   1.299   1.742   1.542
    1UNL    H24   63   1.138   1.751   1.942
    1UNL    H25   64   1.090   1.838   1.456
    1UNL    H26   65   0.928   1.846   1.854
    1UNL    H27   66   0.904   1.891   1.611
    2SOL     OW   67   0.230   0.628   0.113
    2SOL    HW1   68   0.137   0.626   0.150
    2SOL    HW2   69   0.231   0.589   0.021
    3SOL     OW   70   0.225   0.275   0.996
    3SOL    HW1   71   0.260   0.258   1.088
    3SOL    HW2   72   0.137   0.230   0.984
    4SOL     OW   73   0.019   0.368   0.647
    4SOL    HW1   74  -0.063   0.411   0.686
    4SOL    HW2   75  -0.009   0.295   0.584
    5SOL     OW   76   0.569   1.275   1.165
    5SOL    HW1   77   0.476   1.268   1.128
    5SOL    HW2   78   0.580   1.364   1.209
    6SOL     OW   79   1.555   1.511   0.703
    6SOL    HW1   80   1.498   1.495   0.784
    6SOL    HW2   81   1.496   1.521   0.623
    7SOL     OW   82   1.135   0.703   0.717
    7SOL    HW1   83   1.192   0.781   0.692
    7SOL    HW2   84   1.075   0.729   0.793
    8SOL     OW   85   1.755   0.607   0.231
    8SOL    HW1   86   1.743   0.594   0.132
    8SOL    HW2   87   1.725   0.526   0.280
    9SOL     OW   88   0.768   1.144   1.023
    9SOL    HW1   89   0.690   1.161   1.083
    9SOL    HW2   90   0.802   1.231   0.987
   10SOL     OW   91   0.850   0.798   1.823
   10SOL    HW1   92   0.846   0.874   1.888
   10SOL    HW2   93   0.872   0.834   1.732
   11SOL     OW   94   0.685   1.012   0.665
   11SOL    HW1   95   0.754   0.996   0.735
   11SOL    HW2   96   0.612   1.069   0.703
   12SOL     OW   97   0.686   1.161   1.803
   12SOL    HW1   98   0.746   1.240   1.817
   12SOL    HW2   99   0.600   1.192   1.762
   13SOL     OW  100   0.335   1.435   1.061
   13SOL    HW1  101   0.257   1.404   1.008
   13SOL    HW2  102   0.393   1.493   1.004
   14SOL     OW  103   1.460   1.505   1.339
   14SOL    HW1  104   1.484   1.599   1.365
   14SOL    HW2  105   1.444   1.451   1.421
   15SOL     OW  106   0.438   0.392   1.499
   15SOL    HW1  107   0.520   0.336   1.508
   15SOL    HW2  108   0.357   0.334   1.503
   16SOL     OW  109   1.603   0.447   0.737
   16SOL    HW1  110   1.529   0.493   0.687
   16SOL    HW2  111   1.654   0.515   0.790
   17SOL     OW  112   0.231   1.713   0.483
   17SOL    HW1  113   0.265   1.790   0.537
   17SOL    HW2  114   0.275   1.713   0.393
   18SOL     OW  115   1.127   1.341   1.690
   18SOL    HW1  116   1.174   1.341   1.778
   18SOL    HW2  117   1.079   1.254   1.679
   19SOL     OW  118   0.230   1.434   0.538
   19SOL    HW1  119   0.204   1.530   0.538
   19SOL    HW2  120   0.159   1.380   0.583
   20SOL     OW  121   0.240   1.091   0.886
   20SOL    HW1  122   0.254   1.007   0.938
   20SOL    HW2  123   0.185   1.155   0.941
   21SOL     OW  124   0.620   1.786   1.439
   21SOL    HW1  125   0.528   1.769   1.474
   21SOL    HW2  126   0.648   1.878   1.465
   22SOL     OW  127   0.606   0.964   0.123
   22SOL    HW1  128   0.613   1.048   0.069
   22SOL    HW2  129   0.652   0.977   0.211
   23SOL     OW  130   1.594   0.114   1.480
   23SOL    HW1  131   1.576   0.181   1.408
   23SOL    HW2  132   1.591   0.160   1.569
   24SOL     OW  133   0.122   0.643   0.563
   24SOL    HW1  134   0.077   0.555   0.580
   24SOL    HW2  135   0.121   0.697   0.647
   25SOL     OW  136   1.842   1.767   0.359
   25SOL    HW1  137   1.896   1.738   0.439
   25SOL    HW2  138   1.872   1.857   0.330
   26SOL     OW  139   0.027   1.596   0.117
   26SOL    HW1  140   0.008   1.500   0.138
   26SOL    HW2  141  -0.006   1.654   0.192
   27SOL     OW  142   1.689   0.922   0.612
   27SOL    HW1  143   1.784   0.893   0.620
   27SOL    HW2  144   1.681   0.987   0.537
   28SOL     OW  145   1.641   1.108   0.432
   28SOL    HW1  146   1.727   1.110   0.380
   28SOL    HW2  147   1.655   1.155   0.520
   29SOL     OW  148   0.113   0.737   1.597
   29SOL    HW1  149   0.201   0.724   1.642
   29SOL    HW2  150   0.100   0.834   1.575
   30SOL     OW  151   0.613   1.365   0.726
   30SOL    HW1  152   0.564   1.278   0.735
   30SOL    HW2  153   0.590   1.408   0.639
   31SOL     OW  154   1.293   1.228   1.423
   31SOL    HW1  155   1.330   1.155   1.365
   31SOL    HW2  156   1.345   1.233   1.508
   32SOL     OW  157   0.809   0.004   0.502
   32SOL    HW1  158   0.849   0.095   0.493
   32SOL    HW2  159   0.709   0.012   0.508
   33SOL     OW  160   0.197   0.976   1.264
   33SOL    HW1  161   0.286   0.931   1.250
   33SOL    HW2  162   0.124   0.911   1.245
   34SOL     OW  163   1.525   0.999   0.190
   34SOL    HW1  164   1.462   0.923   0.203
   34SOL    HW2  165   1.573   1.017   0.276
   35SOL     OW  166   0.317   0.251   1.801
   35SOL    HW1  167   0.388   0.322   1.807
   35SOL    HW2  168   0.229   0.290   1.829
   36SOL     OW  169   1.466   1.417   0.953
   36SOL    HW1  170   1.407   1.423   1.033
   36SOL    HW2  171   1.451   1.329   0.907
   37SOL     OW  172   1.667   1.714   0.572
   37SOL    HW1  173   1.626   1.691   0.484
   37SOL    HW2  174   1.649   1.640   0.637
   38SOL     OW  175   0.598   0.729   0.270
   38SOL    HW1  176   0.622   0.798   0.202
   38SOL    HW2  177   0.520   0.762   0.324
   39SOL     OW  178   1.281   0.345   0.944
   39SOL    HW1  179   1.195   0.295   0.931
   39SOL    HW2  180   1.343   0.291   1.000
   40SOL     OW  181   1.576   1.662   0.307
   40SOL    HW1  182   1.665   1.708   0.310
   40SOL    HW2  183   1.555   1.638   0.212
   41SOL     OW  184   0.807   0.605   1.465
   41SOL    HW1  185   0.760   0.602   1.554
   41SOL    HW2  186   0.756   0.550   1.399
   42SOL     OW  187   1.394   0.469   1.674
   42SOL    HW1  188   1.374   0.512   1.762
   42SOL    HW2  189   1.472   0.407   1.683
   43SOL     OW  190   0.973   0.890   1.572
   43SOL    HW1  191   1.019   0.806   1.543
   43SOL    HW2  192   0.917   0.924   1.497
   44SOL     OW  193   0.991   0.410   1.242
   44SOL    HW1  194   0.914   0.444   1.296
   44SOL    HW2  195   0.957   0.359   1.163
   45SOL     OW  196   1.041   0.701   0.429
   45SOL    HW1  197   1.067   0.697   0.525
   45SOL    HW2  198   0.956   0.650   0.415
   46SOL     OW  199   0.076   0.811   0.789
   46SOL    HW1  200   0.175   0.799   0.798
   46SOL    HW2  201   0.052   0.906   0.810
   47SOL     OW  202   0.130   1.821   1.571
   47SOL    HW1  203   0.120   1.806   1.670
   47SOL    HW2  204   0.044   1.857   1.535
   48SOL     OW  205   0.865   0.348   0.195
   48SOL    HW1  206   0.924   0.411   0.146
   48SOL    HW2  207   0.884   0.254   0.166
   49SOL     OW  208   1.719   0.585   1.831
   49SOL    HW1  209   1.693   0.674   1.795
   49SOL    HW2  210   1.717   0.517   1.758
   50SOL     OW  211   1.362   1.144   0.545
   50SOL    HW1  212   1.445   1.115   0.497
   50SOL    HW2  213   1.313   1.211   0.489
   51SOL     OW  214   0.550   0.196   0.885
   51SOL    HW1  215   0.545   0.191   0.985
   51SOL    HW2  216   0.552   0.292   0.856
   52SOL     OW  217   1.008   1.456   0.477
   52SOL    HW1  218   0.962   1.528   0.425
   52SOL    HW2  219   1.004   1.476   0.575
   53SOL     OW  220   0.351   1.801   0.853
   53SOL    HW1  221   0.401   1.715   0.859
   53SOL    HW2  222   0.416   1.878   0.850
   54SOL     OW  223   1.795   1.066   0.873
   54SOL    HW1  224   1.733   1.051   0.797
   54SOL    HW2  225   1.743   1.077   0.958
   55SOL     OW  226   1.227   1.550   1.506
   55SOL    HW1  227   1.233   1.473   1.570
   55SOL    HW2  228   1.175   1.524   1.426
   56SOL     OW  229   0.321   0.943   0.242
   56SOL    HW1  230   0.403   0.982   0.200
   56SOL    HW2  231   0.294   0.861   0.193
   57SOL     OW  232   1.458   0.735   0.728
   57SOL    HW1  233   1.453   0.670   0.803
   57SOL    HW2  234   1.538   0.794   0.741
   58SOL     OW  235   0.461   1.266   1.727
   58SOL    HW1  236   0.411   1.267   1.641
   58SOL    HW2  237   0.398   1.248   1.803
   59SOL     OW  238   1.111   1.776   0.237
   59SOL    HW1  239   1.051   1.714   0.287
   59SOL    HW2  240   1.142   1.732   0.152
   60SOL     OW  241   0.202   0.285   1.498
   60SOL    HW1  242   0.122   0.345   1.485
   60SOL    HW2  243   0.192   0.236   1.584
   61SOL     OW  244   1.632   1.377   0.081
   61SOL    HW1  245   1.600   1.471   0.071
   61SOL    HW2  246   1.556   1.314   0.069
   62SOL     OW  247   0.464   1.743   0.323
   62SOL    HW1  248   0.497   1.782   0.409
   62SOL    HW2  249   0.540   1.736   0.258
   63SOL     OW  250   1.400   0.107   0.426
   63SOL    HW1  251   1.376   0.070   0.336
   63SOL    HW2  252   1.499   0.123   0.430
   64SOL     OW  253   0.249   1.785   1.241
   64SOL    HW1  254   0.306   1.720   1.291
   64SOL    HW2  255   0.233   1.752   1.148
   65SOL     OW  256   0.940   1.698   0.904
   65SOL    HW1  257   1.020   1.641   0.925
   65SOL    HW2  258   0.891   1.658   0.827
   66SOL     OW  259   0.382   0.700   0.480
   66SOL    HW1  260   0.427   0.610   0.477
   66SOL    HW2  261   0.288   0.689   0.513
   67SOL     OW  262   1.547   0.222   1.729
   67SOL    HW1  263   1.542   0.259   1.821
   67SOL    HW2  264   1.475   0.153   1.717
   68SOL     OW  265   0.614   0.122   0.117
   68SOL    HW1  266   0.712   0.100   0.124
   68SOL    HW2  267   0.583   0.105   0.024
   69SOL     OW  268   0.781   0.264   1.749
   69SOL    HW1  269   0.848   0.203   1.792
   69SOL    HW2  270   0.708   0.283   1.814
   70SOL     OW  271   0.888   1.514   1.195
   70SOL    HW1  272   0.865   1.489   1.101
   70SOL    HW2  273   0.949   1.445   1.234
   71SOL     OW  274   1.351   0.590   1.433
   71SOL    HW1  275   1.379   0.547   1.518
   71SOL    HW2  276   1.376   0.686   1.434
   72SOL     OW  277   0.803   1.402   0.924
   72SOL    HW1  278   0.893   1.416   0.882
   72SOL    HW2  279   0.732   1.404   0.853
   73SOL     OW  280   0.922   0.503   0.899
   73SOL    HW1  281   0.897   0.494   0.803
   73SOL    HW2  282   0.970   0.421   0.930
   74SOL     OW  283   0.539   0.064   0.512
   74SOL    HW1  284   0.458   0.065   0.570
   74SOL    HW2  285   0.542   0.147   0.457
   75SOL     OW  286   1.434   1.188   0.041
   75SOL    HW1  287   1.466   1.112   0.098
   75SOL    HW2  288   1.342   1.215   0.071
   76SOL     OW  289   0.297   0.035   0.171
   76SOL    HW1  290   0.346   0.119   0.150
   76SOL    HW2  291   0.359  -0.030   0.216
   77SOL     OW  292   0.935   0.236   0.480
   77SOL    HW1  293   0.887   0.277   0.402
   77SOL    HW2  294   1.034   0.234   0.461
   78SOL     OW  295   1.076   0.683   1.464
   78SOL    HW1  296   0.996   0.622   1.467
   78SOL    HW2  297   1.157   0.630   1.440
   79SOL     OW  298   1.227   1.570   0.793
   79SOL    HW1  299   1.248   1.644   0.728
   79SOL    HW2  300   1.295   1.570   0.866
   80SOL     OW  301   0.459   1.152   0.741
   80SOL    HW1  302   0.388   1.125   0.806
   80SOL    HW2  303   0.433   1.124   0.648
   81SOL     OW  304   1.271   1.797   0.591
   81SOL    HW1  305   1.315   1.861   0.527
   81SOL    HW2  306   1.221   1.849   0.661
   82SOL     OW  307   1.032   0.549   0.016
   82SOL    HW1  308   0.991   0.631  -0.023
   82SOL    HW2  309   1.096   0.575   0.089
   83SOL     OW  310   0.078   0.556   1.386
   83SOL    HW1  311   0.170   0.555   1.345
   83SOL    HW2  312   0.072   0.630   1.453
   84SOL     OW  313   0.561   0.222   1.147
   84SOL    HW1  314   0.599   0.138   1.184
   84SOL    HW2  315   0.473   0.241   1.191
   85SOL     OW  316   0.866   0.454   0.642
   85SOL    HW1  317   0.834   0.526   0.580
   85SOL    HW2  318   0.890   0.373   0.589
   86SOL     OW  319   1.017   0.039   0.753
   86SOL    HW1  320   0.945   0.044   0.684
   86SOL    HW2  321   0.993  -0.030   0.822
   87SOL     OW  322   1.429   1.173   0.867
   87SOL    HW1  323   1.374   1.089   0.860
   87SOL    HW2  324   1.455   1.202   0.775
   88SOL     OW  325   1.466   0.590   0.992
   88SOL    HW1  326   1.436   0.495   0.999
   88SOL    HW2  327   1.539   0.606   1.058
   89SOL     OW  328   1.857   0.833   0.377
   89SOL    HW1  329   1.899   0.769   0.441
   89SOL    HW2  330   1.819   0.782   0.299
   90SOL     OW  331   0.488   1.385   0.174
   90SOL    HW1  332   0.401   1.370   0.221
   90SOL    HW2  333   0.471   1.411   0.079
   91SOL     OW  334   1.664   1.280   0.657
   91SOL    HW1  335   1.763   1.288   0.671
   91SOL    HW2  336   1.619   1.364   0.688
   92SOL     OW  337   1.390   0.575   0.078
   92SOL    HW1  338   1.336   0.554   0.159
   92SOL    HW2  339   1.481   0.534   0.087
   93SOL     OW  340   0.527   0.256   0.328
   93SOL    HW1  341   0.554   0.197   0.253
   93SOL    HW2  342   0.527   0.351   0.297
   94SOL     OW  343   1.064   1.347   1.340
   94SOL    HW1  344   0.984   1.324   1.395
   94SOL    HW2  345   1.147   1.321   1.389
   95SOL     OW  346   1.111   1.195   1.100
   95SOL    HW1  347   1.071   1.239   1.181
   95SOL    HW2  348   1.070   1.232   1.017
   96SOL     OW  349   1.638   1.099   1.079
   96SOL    HW1  350   1.643   1.180   1.138
   96SOL    HW2  351   1.552   1.101   1.028
   97SOL     OW  352   0.915   0.089   1.402
   97SOL    HW1  353   0.940   0.069   1.307
   97SOL    HW2  354   0.987   0.145   1.444
   98SOL     OW  355   0.980   1.116   1.719
   98SOL    HW1  356   0.881   1.122   1.729
   98SOL    HW2  357   1.003   1.036   1.663
   99SOL     OW  358   0.705   1.050   0.368
   99SOL    HW1  359   0.691   1.057   0.467
   99SOL    HW2  360   0.789   0.999   0.350
  100SOL     OW  361   0.410   0.813   1.251
  100SOL    HW1  362   0.496   0.825   1.301
  100SOL    HW2  363   0.368   0.726   1.278
  101SOL     OW  364   1.274   0.386   1.262
  101SOL    HW1  365   1.295   0.460   1.326
  101SOL    HW2  366   1.185   0.403   1.219
  102SOL     OW  367   0.064   1.564   1.331
  102SOL    HW1  368   0.018   1.646   1.297
  102SOL    HW2  369   0.162   1.583   1.340
  103SOL     OW  370   0.367   1.100   0.501
  103SOL    HW1  371   0.360   1.183   0.445
  103SOL    HW2  372   0.371   1.020   0.441
  104SOL     OW  373   0.566   0.537   0.865
  104SOL    HW1  374   0.578   0.603   0.791
  104SOL    HW2  375   0.612   0.571   0.948
  105SOL     OW  376   1.252   1.348   0.388
  105SOL    HW1  377   1.302   1.425   0.428
  105SOL    HW2  378   1.157   1.350   0.420
  106SOL     OW  379   1.272   1.445   1.142
  106SOL    HW1  380   1.319   1.458   1.229
  106SOL    HW2  381   1.206   1.371   1.151
  107SOL     OW  382   1.582   0.639   0.472
  107SOL    HW1  383   1.551   0.700   0.545
  107SOL    HW2  384   1.632   0.691   0.403
  108SOL     OW  385   0.354   1.510   1.329
  108SOL    HW1  386   0.333   1.466   1.242
  108SOL    HW2  387   0.451   1.536   1.332
  109SOL     OW  388   0.402   0.751   1.598
  109SOL    HW1  389   0.470   0.806   1.551
  109SOL    HW2  390   0.442   0.663   1.625
  110SOL     OW  391   1.587   0.779   1.670
  110SOL    HW1  392   1.495   0.817   1.665
  110SOL    HW2  393   1.647   0.826   1.605
  111SOL     OW  394   1.013   0.105   1.770
  111SOL    HW1  395   1.019   0.190   1.718
  111SOL    HW2  396   1.045   0.029   1.713
  112SOL     OW  397   0.504   0.050   1.740
  112SOL    HW1  398   0.462  -0.007   1.670
  112SOL    HW2  399   0.438   0.119   1.772
  113SOL     OW  400   0.573   0.870   1.029
  113SOL    HW1  401   0.617   0.959   1.020
  113SOL    HW2  402   0.510   0.870   1.106
  114SOL     OW  403   1.360   0.862   1.045
  114SOL    HW1  404   1.285   0.862   0.979
  114SOL    HW2  405   1.397   0.770   1.054
  115SOL     OW  406   1.209   0.525   0.275
  115SOL    HW1  407   1.222   0.441   0.329
  115SOL    HW2  408   1.180   0.599   0.335
  116SOL     OW  409   0.307   0.213   1.231
  116SOL    HW1  410   0.284   0.250   1.321
  116SOL    HW2  411   0.277   0.118   1.225
  117SOL     OW  412   0.037   1.310   1.282
  117SOL    HW1  413   0.090   1.261   1.350
  117SOL    HW2  414   0.059   1.408   1.287
  118SOL     OW  415   0.732   0.634   1.064
  118SOL    HW1  416   0.791   0.608   0.988
  118SOL    HW2  417   0.704   0.730   1.053
  119SOL     OW  418   1.728   0.935   1.854
  119SOL    HW1  419   1.682   0.928   1.765
  119SOL    HW2  420   1.666   0.979   1.920
  120SOL     OW  421   0.307   0.063   0.618
  120SOL    HW1  422   0.296   0.157   0.651
  120SOL    HW2  423   0.302   0.000   0.695
  121SOL     OW  424   1.622   0.367   0.374
  121SOL    HW1  425   1.624   0.291   0.438
  121SOL    HW2  426   1.574   0.444   0.414
  122SOL     OW  427   1.023   0.766   0.966
  122SOL    HW1  428   1.038   0.787   1.062
  122SOL    HW2  429   0.993   0.671   0.957
  123SOL     OW  430   0.980   1.573   1.700
  123SOL    HW1  431   0.960   1.617   1.612
  123SOL    HW2  432   1.019   1.482   1.684
  124SOL     OW  433   0.350   0.898   1.804
  124SOL    HW1  434   0.426   0.942   1.852
  124SOL    HW2  435   0.385   0.851   1.722
  125SOL     OW  436   1.540   0.274   0.125
  125SOL    HW1  437   1.479   0.199   0.148
  125SOL    HW2  438   1.562   0.326   0.208
  126SOL     OW  439   1.303   0.838   0.042
  126SOL    HW1  440   1.337   0.745   0.057
  126SOL    HW2  441   1.321   0.865  -0.053
  127SOL     OW  442   1.068   1.333   0.849
  127SOL    HW1  443   1.075   1.249   0.794
  127SOL    HW2  444   1.130   1.402   0.813
  128SOL     OW  445   0.319   0.810   0.949
  128SOL    HW1  446   0.412   0.846   0.954
  128SOL    HW2  447   0.313   0.725   1.001
  129SOL     OW  448   0.339   0.509   1.006
  129SOL    HW1  449   0.287   0.426   0.989
  129SOL    HW2  450   0.416   0.514   0.942
  130SOL     OW  451   1.138   0.380   1.678
  130SOL    HW1  452   1.093   0.443   1.742
  130SOL    HW2  453   1.231   0.411   1.661
  131SOL     OW  454   1.160   0.207   1.477
  131SOL    HW1  455   1.160   0.271   1.554
  131SOL    HW2  456   1.188   0.255   1.394
  132SOL     OW  457   0.008   1.326   0.200
  132SOL    HW1  458  -0.085   1.347   0.169
  132SOL    HW2  459   0.018   1.227   0.213
  133SOL     OW  460   0.088   1.801   0.927
  133SOL    HW1  461   0.046   1.715   0.900
  133SOL    HW2  462   0.182   1.804   0.893
  134SOL     OW  463   0.504   1.568   0.910
  134SOL    HW1  464   0.570   1.642   0.919
  134SOL    HW2  465   0.548   1.489   0.868
  135SOL     OW  466   1.002   0.796   1.238
  135SOL    HW1  467   1.043   0.764   1.324
  135SOL    HW2  468   0.906   0.769   1.235
  136SOL     OW  469   0.040   0.544   1.114
  136SOL    HW1  470   0.125   0.511   1.073
  136SOL    HW2  471   0.053   0.559   1.212
  137SOL     OW  472   0.189   0.520   1.722
  137SOL    HW1  473   0.248   0.480   1.652
  137SOL    HW2  474   0.131   0.591   1.681
  138SOL     OW  475   1.369   0.950   1.660
  138SOL    HW1  476   1.408   1.039   1.680
  138SOL    HW2  477   1.379   0.930   1.563
  139SOL     OW  478   0.815   0.572   0.325
  139SOL    HW1  479   0.822   0.483   0.279
  139SOL    HW2  480   0.721   0.606   0.317
  140SOL     OW  481   1.657   0.604   1.206
  140SOL    HW1  482   1.619   0.535   1.268
  140SOL    HW2  483   1.739   0.568   1.162
  141SOL     OW  484   0.252   1.564   1.744
  141SOL    HW1  485   0.222   1.621   1.820
  141SOL    HW2  486   0.245   1.467   1.770
  142SOL     OW  487   0.671   0.464   1.269
  142SOL    HW1  488   0.637   0.375   1.239
  142SOL    HW2  489   0.697   0.518   1.189
  143SOL     OW  490   0.930   1.678   1.465
  143SOL    HW1  491   0.906   1.660   1.370
  143SOL    HW2  492   0.960   1.772   1.475
  144SOL     OW  493   0.473   0.500   0.191
  144SOL    HW1  494   0.534   0.580   0.195
  144SOL    HW2  495   0.378   0.531   0.198
  145SOL     OW  496   0.159   1.137   1.466
  145SOL    HW1  497   0.181   1.076   1.542
  145SOL    HW2  498   0.169   1.088   1.380
  146SOL     OW  499   1.347   1.059   1.234
  146SOL    HW1  500   1.371   0.996   1.160
  146SOL    HW2  501   1.257   1.099   1.216
  147SOL     OW  502   1.302   0.855   0.309
  147SOL    HW1  503   1.216   0.824   0.351
  147SOL    HW2  504   1.298   0.841   0.210
  148SOL     OW  505   1.759   1.747   1.154
  148SOL    HW1  506   1.820   1.777   1.081
  148SOL    HW2  507   1.721   1.658   1.132
  149SOL     OW  508   1.252   1.731   1.128
  149SOL    HW1  509   1.336   1.736   1.074
  149SOL    HW2  510   1.229   1.635   1.146
  150SOL     OW  511   0.083   1.258   1.022
  150SOL    HW1  512   0.078   1.257   1.122
  150SOL    HW2  513   0.000   1.217   0.984
  151SOL     OW  514   0.688   1.662   1.716
  151SOL    HW1  515   0.632   1.743   1.725
  151SOL    HW2  516   0.740   1.666   1.630
  152SOL     OW  517   0.903   0.086   0.133
  152SOL    HW1  518   0.954   0.087   0.047
  152SOL    HW2  519   0.959   0.044   0.204
  153SOL     OW  520   1.726   0.135   0.523
  153SOL    HW1  521   1.799   0.118   0.456
  153SOL    HW2  522   1.695   0.048   0.561
  154SOL     OW  523   1.388   1.573   0.477
  154SOL    HW1  524   1.455   1.585   0.403
  154SOL    HW2  525   1.348   1.662   0.500
  155SOL     OW  526   0.130   1.794   1.851
  155SOL    HW1  527   0.089   1.720   1.904
  155SOL    HW2  528   0.194   1.845   1.909
  156SOL     OW  529   1.280   0.927   0.672
  156SOL    HW1  530   1.340   0.846   0.674
  156SOL    HW2  531   1.320   0.996   0.612
  157SOL     OW  532   0.830   1.273   1.422
  157SOL    HW1  533   0.825   1.306   1.517
  157SOL    HW2  534   0.744   1.292   1.376
  158SOL     OW  535   0.672   1.616   0.154
  158SOL    HW1  536   0.681   1.626   0.055
  158SOL    HW2  537   0.632   1.527   0.175
  159SOL     OW  538   1.650   1.720   1.394
  159SOL    HW1  539   1.703   1.730   1.310
  159SOL    HW2  540   1.623   1.810   1.428
  160SOL     OW  541   1.841   0.175   0.963
  160SOL    HW1  542   1.880   0.090   0.927
  160SOL    HW2  543   1.743   0.177   0.944
  161SOL     OW  544   0.263   0.326   0.720
  161SOL    HW1  545   0.184   0.377   0.686
  161SOL    HW2  546   0.254   0.311   0.818
  162SOL     OW  547   1.194   1.612   0.031
  162SOL    HW1  548   1.200   1.519   0.068
  162SOL    HW2  549   1.135   1.612  -0.049
  163SOL     OW  550   0.822   1.002   1.372
  163SOL    HW1  551   0.862   1.001   1.280
  163SOL    HW2  552   0.832   1.094   1.412
  164SOL     OW  553   0.916   0.910   0.291
  164SOL    HW1  554   0.979   0.948   0.223
  164SOL    HW2  555   0.956   0.827   0.330
  165SOL     OW  556   1.504   1.607   0.044
  165SOL    HW1  557   1.412   1.644   0.051
  165SOL    HW2  558   1.542   1.627  -0.046
  166SOL     OW  559   0.372   1.288   1.490
  166SOL    HW1  560   0.359   1.381   1.456
  166SOL    HW2  561   0.288   1.236   1.477
  167SOL     OW  562   1.614   1.292   1.289
  167SOL    HW1  563   1.674   1.295   1.369
  167SOL    HW2  564   1.539   1.356   1.302
  168SOL     OW  565   1.039   1.098   0.696
  168SOL    HW1  566   0.969   1.051   0.750
  168SOL    HW2  567   1.098   1.030   0.653
  169SOL     OW  568   1.014   0.236   0.971
  169SOL    HW1  569   1.006   0.200   0.878
  169SOL    HW2  570   1.012   0.160   1.036
  170SOL     OW  571   0.590   1.487   0.491
  170SOL    HW1  572   0.632   1.429   0.421
  170SOL    HW2  573   0.546   1.566   0.447
  171SOL     OW  574   1.709   0.385   1.381
  171SOL    HW1  575   1.782   0.454   1.385
  171SOL    HW2  576   1.737   0.310   1.322
  172SOL     OW  577   0.255   1.348   0.290
  172SOL    HW1  578   0.159   1.349   0.263
  172SOL    HW2  579   0.267   1.401   0.374
  173SOL     OW  580   0.105   1.013   1.726
  173SOL    HW1  581   0.028   0.980   1.780
  173SOL    HW2  582   0.190   0.983   1.768
  174SOL     OW  583   0.672   0.203   1.489
  174SOL    HW1  584   0.762   0.187   1.449
  174SOL    HW2  585   0.680   0.208   1.588
  175SOL     OW  586   0.075   0.345   0.033
  175SOL    HW1  587  -0.017   0.317   0.004
  175SOL    HW2  588   0.106   0.422  -0.023
  176SOL     OW  589   1.440   0.856   1.398
  176SOL    HW1  590   1.383   0.908   1.335
  176SOL    HW2  591   1.536   0.868   1.374
  177SOL     OW  592   0.072   0.166   0.318
  177SOL    HW1  593   0.055   0.249   0.264
  177SOL    HW2  594   0.162   0.129   0.296
  178SOL     OW  595   1.183   1.335   0.119
  178SOL    HW1  596   1.084   1.324   0.121
  178SOL    HW2  597   1.217   1.350   0.212
  179SOL     OW  598   0.613   0.842   1.431
  179SOL    HW1  599   0.669   0.923   1.414
  179SOL    HW2  600   0.672   0.762   1.434
  180SOL     OW  601   1.493   1.767   0.959
  180SOL    HW1  602   1.526   1.831   0.890
  180SOL    HW2  603   1.559   1.761   1.034
  181SOL     OW  604   0.716   0.565   1.708
  181SOL    HW1  605   0.735   0.630   1.782
  181SOL    HW2  606   0.776   0.485   1.717
  182SOL     OW  607   1.450   1.220   1.633
  182SOL    HW1  608   1.441   1.210   1.732
  182SOL    HW2  609   1.546   1.213   1.607
  183SOL     OW  610   0.390   1.741   1.560
  183SOL    HW1  611   0.299   1.782   1.558
  183SOL    HW2  612   0.383   1.647   1.592
  184SOL     OW  613   1.674   0.883   1.254
  184SOL    HW1  614   1.647   0.794   1.217
  184SOL    HW2  615   1.675   0.951   1.181
  185SOL     OW  616   1.225   0.325   0.449
  185SOL    HW1  617   1.290   0.251   0.438
  185SOL    HW2  618   1.245   0.375   0.533
  186SOL     OW  619   0.594   0.745   0.652
  186SOL    HW1  620   0.644   0.830   0.633
  186SOL    HW2  621   0.506   0.747   0.604
  187SOL     OW  622   1.777   0.342   1.642
  187SOL    HW1  623   1.760   0.373   1.548
  187SOL    HW2  624   1.693   0.305   1.680
  188SOL     OW  625   1.730   0.934   1.517
  188SOL    HW1  626   1.768   1.025   1.532
  188SOL    HW2  627   1.722   0.917   1.418
  189SOL     OW  628   0.859   1.374   0.016
  189SOL    HW1  629   0.813   1.389   0.104
  189SOL    HW2  630   0.903   1.459  -0.014
  190SOL     OW  631   0.661   1.790   0.953
  190SOL    HW1  632   0.615   1.878   0.940
  190SOL    HW2  633   0.760   1.802   0.946
  191SOL     OW  634   0.859   0.956   0.861
  191SOL    HW1  635   0.913   0.887   0.909
  191SOL    HW2  636   0.827   1.025   0.927
  192SOL     OW  637   1.083   0.984   0.087
  192SOL    HW1  638   1.060   1.037   0.005
  192SOL    HW2  639   1.164   0.928   0.068
  193SOL     OW  640   1.861   1.569   0.851
  193SOL    HW1  641   1.790   1.557   0.781
  193SOL    HW2  642   1.862   1.490   0.911
  194SOL     OW  643   0.221   1.314   1.844
  194SOL    HW1  644   0.156   1.241   1.823
  194SOL    HW2  645   0.225   1.328   1.942
  195SOL     OW  646   0.079   1.240   0.653
  195SOL    HW1  647   0.078   1.193   0.741
  195SOL    HW2  648   0.161   1.212   0.602
  196SOL     OW  649   0.672   1.391   1.624
  196SOL    HW1  650   0.594   1.341   1.662
  196SOL    HW2  651   0.669   1.486   1.655
  197SOL     OW  652   1.824   0.192   1.227
  197SOL    HW1  653   1.820   0.102   1.271
  197SOL    HW2  654   1.827   0.181   1.128
  198SOL     OW  655   0.428   0.424   0.520
  198SOL    HW1  656   0.458   0.352   0.458
  198SOL    HW2  657   0.389   0.384   0.603
  199SOL     OW  658   1.705   1.487   1.104
  199SOL    HW1  659   1.612   1.462   1.077
  199SOL    HW2  660   1.731   1.437   1.186
  200SOL     OW  661   0.317   0.547   1.280
  200SOL    HW1  662   0.355   0.488   1.352
  200SOL    HW2  663   0.357   0.521   1.192
  201SOL     OW  664   0.812   1.586   0.687
  201SOL    HW1  665   0.844   1.596   0.593
  201SOL    HW2  666   0.733   1.524   0.689
  202SOL     OW  667   1.424   0.214   1.112
  202SOL    HW1  668   1.476   0.149   1.167
  202SOL    HW2  669   1.375   0.277   1.173
  203SOL     OW  670   1.001   0.034   1.154
  203SOL    HW1  671   0.938  -0.038   1.123
  203SOL    HW2  672   1.094  -0.002   1.154
  204SOL     OW  673   0.770   1.330   0.301
  204SOL    HW1  674   0.724   1.243   0.318
  204SOL    HW2  675   0.861   1.327   0.342
  205SOL     OW  676   0.618   1.567   1.284
  205SOL    HW1  677   0.613   1.649   1.341
  205SOL    HW2  678   0.707   1.564   1.239
  206SOL     OW  679   1.352   0.052   0.168
  206SOL    HW1  680   1.387   0.011   0.084
  206SOL    HW2  681   1.262   0.014   0.188
  207SOL     OW  682   1.300   0.453   0.691
  207SOL    HW1  683   1.241   0.533   0.695
  207SOL    HW2  684   1.315   0.418   0.784
  208SOL     OW  685   1.593   0.221   0.882
  208SOL    HW1  686   1.509   0.220   0.936
  208SOL    HW2  687   1.595   0.304   0.826
  209SOL     OW  688   0.039   1.077   0.300
  209SOL    HW1  689   0.138   1.066   0.291
  209SOL    HW2  690  -0.001   0.991   0.332
  210SOL     OW  691   0.875   1.646   0.337
  210SOL    HW1  692   0.798   1.611   0.283
  210SOL    HW2  693   0.843   1.717   0.399
  211SOL     OW  694   0.230   0.628   1.975
  211SOL    HW1  695   0.137   0.626   2.012
  211SOL    HW2  696   0.231   0.589   1.883
  212SOL     OW  697   0.225   0.275   2.858
  212SOL    HW1  698   0.260   0.258   2.950
  212SOL    HW2  699   0.137   0.230   2.846
  213SOL     OW  700   0.019   0.368   2.509
  213SOL    HW1  701  -0.063   0.411   2.548
  213SOL    HW2  702  -0.009   0.295   2.446
  214SOL     OW  703   0.569   1.275   3.027
  214SOL    HW1  704   0.476   1.268   2.990
  214SOL    HW2  705   0.580   1.364   3.071
  215SOL     OW  706   1.555   1.511   2.565
  215SOL    HW1  707   1.498   1.495   2.646
  215SOL    HW2  708   1.496   1.521   2.485
  216SOL     OW  709   1.135   0.703   2.579
  216SOL    HW1  710   1.192   0.781   2.554
  216SOL    HW2  711   1.075   0.729   2.655
  217SOL     OW  712   1.755   0.607   2.093
  217SOL    HW1  713   1.743   0.594   1.994
  217SOL    HW2  714   1.725   0.526   2.142
  218SOL     OW  715   0.768   1.144   2.885
  218SOL    HW1  716   0.690   1.161   2.945
  218SOL    HW2  717   0.802   1.231   2.849
  219SOL     OW  718   0.685   1.012   2.527
  219SOL    HW1  719   0.754   0.996   2.597
  219SOL    HW2  720   0.612   1.069   2.565
  220SOL     OW  721   0.335   1.435   2.923
  220SOL    HW1  722   0.257   1.404   2.870
  220SOL    HW2  723   0.393   1.493   2.866
  221SOL     OW  724   1.460   1.505   3.201
  221SOL    HW1  725   1.484   1.599   3.227
  221SOL    HW2  726   1.444   1.451   3.283
  222SOL     OW  727   0.438   0.392   3.361
  222SOL    HW1  728   0.520   0.336   3.370
  222SOL    HW2  729   0.357   0.334   3.365
  223SOL     OW  730   1.603   0.447   2.599
  223SOL    HW1  731   1.529   0.493   2.549
  223SOL    HW2  732   1.654   0.515   2.652
  224SOL     OW  733   0.231   1.713   2.345
  224SOL    HW1  734   0.265   1.790   2.399
  224SOL    HW2  735   0.275   1.713   2.255
  225SOL     OW  736   0.230   1.434   2.400
  225SOL    HW1  737   0.204   1.530   2.400
  225SOL    HW2  738   0.159   1.380   2.445
  226SOL     OW  739   0.240   1.091   2.748
  226SOL    HW1  740   0.254   1.007   2.800
  226SOL    HW2  741   0.185   1.155   2.803
  227SOL     OW  742   0.620   1.786   3.301
  227SOL    HW1  743   0.528   1.769   3.336
  227SOL    HW2  744   0.648   1.878   3.327
  228SOL     OW  745   0.606   0.964   1.985
  228SOL    HW1  746   0.613   1.048   1.931
  228SOL    HW2  747   0.652   0.977   2.073
  229SOL     OW  748   1.594   0.114   3.342
  229SOL    HW1  749   1.576   0.181   3.270
  229SOL    HW2  750   1.591   0.160   3.431
  230SOL     OW  751   0.122   0.643   2.425
  230SOL    HW1  752   0.077   0.555   2.442
  230SOL    HW2  753   0.121   0.697   2.509
  231SOL     OW  754   1.842   1.767   2.221
  231SOL    HW1  755   1.896   1.738   2.301
  231SOL    HW2  756   1.872   1.857   2.192
  232SOL     OW  757   0.027   1.596   1.979
  232SOL    HW1  758   0.008   1.500   2.000
  232SOL    HW2  759  -0.006   1.654   2.054
  233SOL     OW  760   1.689   0.922   2.474
  233SOL    HW1  761   1.784   0.893   2.482
  233SOL    HW2  762   1.681   0.987   2.399
  234SOL     OW  763   1.641   1.108   2.294
  234SOL    HW1  764   1.727   1.110   2.242
  234SOL    HW2  765   1.655   1.155   2.382
  235SOL     OW  766   0.613   1.365   2.588
  235SOL    HW1  767   0.564   1.278   2.597
  235SOL    HW2  768   0.590   1.408   2.501
  236SOL     OW  769   0.809   0.004   2.364
  236SOL    HW1  770   0.849   0.095   2.355
  236SOL    HW2  771   0.709   0.012   2.370
  237SOL     OW  772   0.197   0.976   3.126
  237SOL    HW1  773   0.286   0.931   3.112
  237SOL    HW2  774   0.124   0.911   3.107
  238SOL     OW  775   1.525   0.999   2.052
  238SOL    HW1  776   1.462   0.923   2.065
  238SOL    HW2  777   1.573   1.017   2.138
  239SOL     OW  778   1.466   1.417   2.815
  239SOL    HW1  779   1.407   1.423   2.895
  239SOL    HW2  780   1.451   1.329   2.769
  240SOL     OW  781   1.667   1.714   2.434
  240SOL    HW1  782   1.626   1.691   2.346
  240SOL    HW2  783   1.649   1.640   2.499
  241SOL     OW  784   0.598   0.729   2.132
  241SOL    HW1  785   0.622   0.798   2.064
  241SOL    HW2  786   0.520   0.762   2.186
  242SOL     OW  787   1.281   0.345   2.806
  242SOL    HW1  788   1.195   0.295   2.793
  242SOL    HW2  789   1.343   0.291   2.862
  243SOL     OW  790   1.576   1.662   2.169
  243SOL    HW1  791   1.665   1.708   2.172
  243SOL    HW2  792   1.555   1.638   2.074
  244SOL     OW  793   0.807   0.605   3.327
  244SOL    HW1  794   0.760   0.602   3.416
  244SOL    HW2  795   0.756   0.550   3.261
  245SOL     OW  796   0.973   0.890   3.434
  245SOL    HW1  797   1.019   0.806   3.405
  245SOL    HW2  798   0.917   0.924   3.359
  246SOL     OW  799   0.991   0.410   3.104
  246SOL    HW1  800   0.914   0.444   3.158
  246SOL    HW2  801   0.957   0.359   3.025
  247SOL     OW  802   1.041   0.701   2.291
  247SOL    HW1  803   1.067   0.697   2.387
  247SOL    HW2  804   0.956   0.650   2.277
  248SOL     OW  805   0.076   0.811   2.651
  248SOL    HW1  806   0.175   0.799   2.660
  248SOL    HW2  807   0.052   0.906   2.672
  249SOL     OW  808   0.130   1.821   3.433
  249SOL    HW1  809   0.120   1.806   3.532
  249SOL    HW2  810   0.044   1.857   3.397
  250SOL     OW  811   0.865   0.348   2.057
  250SOL    HW1  812   0.924   0.411   2.008
  250SOL    HW2  813   0.884   0.254   2.028
  251SOL     OW  814   1.362   1.144   2.407
  251SOL    HW1  815   1.445   1.115   2.359
  251SOL    HW2  816   1.313   1.211   2.351
  252SOL     OW  817   0.550   0.196   2.747
  252SOL    HW1  818   0.545   0.191   2.847
  252SOL    HW2  819   0.552   0.292   2.718
  253SOL     OW  820   1.008   1.456   2.339
  253SOL    HW1  821   0.962   1.528   2.287
  253SOL    HW2  822   1.004   1.476   2.437
  254SOL     OW  823   0.351   1.801   2.715
  254SOL    HW1  824   0.401   1.715   2.721
  254SOL    HW2  825   0.416   1.878   2.712
  255SOL     OW  826   1.795   1.066   2.735
  255SOL    HW1  827   1.733   1.051   2.659
  255SOL    HW2  828   1.743   1.077   2.820
  256SOL     OW  829   0.321   0.943   2.104
  256SOL    HW1  830   0.403   0.982   2.062
  256SOL    HW2  831   0.294   0.861   2.055
  257SOL     OW  832   1.458   0.735   2.590
  257SOL    HW1  833   1.453   0.670   2.665
  257SOL    HW2  834   1.538   0.794   2.603
  258SOL     OW  835   0.464   1.743   2.185
  258SOL    HW1  836   0.497   1.782   2.271
  258SOL    HW2  837   0.540   1.736   2.120
  259SOL     OW  838   1.400   0.107   2.288
  259SOL    HW1  839   1.376   0.070   2.198
  259SOL    HW2  840   1.499   0.123   2.292
  260SOL     OW  841   0.249   1.785   3.103
  260SOL    HW1  842   0.306   1.720   3.153
  260SOL    HW2  843   0.233   1.752   3.010
  261SOL     OW  844   0.940   1.698   2.766
  261SOL    HW1  845   1.020   1.641   2.787
  261SOL    HW2  846   0.891   1.658   2.689
  262SOL     OW  847   0.382   0.700   2.342
  262SOL    HW1  848   0.427   0.610   2.339
  262SOL    HW2  849   0.288   0.689   2.375
  263SOL     OW  850   0.614   0.122   1.979
  263SOL    HW1  851   0.712   0.100   1.986
  263SOL    HW2  852   0.583   0.105   1.886
  264SOL     OW  853   0.888   1.514   3.057
  264SOL    HW1  854   0.865   1.489   2.963
  264SOL    HW2  855   0.949   1.445   3.096
  265SOL     OW  856   0.803   1.402   2.786
  265SOL    HW1  857   0.893   1.416   2.744
  265SOL    HW2  858   0.732   1.404   2.715
  266SOL     OW  859   0.922   0.503   2.761
  266SOL    HW1  860   0.897   0.494   2.665
  266SOL    HW2  861   0.970   0.421   2.792
  267SOL     OW  862   0.539   0.064   2.374
  267SOL    HW1  863   0.458   0.065   2.432
  267SOL    HW2  864   0.542   0.147   2.319
  268SOL     OW  865   1.434   1.188   1.903
  268SOL    HW1  866   1.466   1.112   1.960
  268SOL    HW2  867   1.342   1.215   1.933
  269SOL     OW  868   0.297   0.035   2.033
  269SOL    HW1  869   0.346   0.119   2.012
  269SOL    HW2  870   0.359  -0.030   2.078
  270SOL     OW  871   0.935   0.236   2.342
  270SOL    HW1  872   0.887   0.277   2.264
  270SOL    HW2  873   1.034   0.234   2.323
  271SOL     OW  874   1.227   1.570   2.655
  271SOL    HW1  875   1.248   1.644   2.590
  271SOL    HW2  876   1.295   1.570   2.728
  272SOL     OW  877   0.459   1.152   2.603
  272SOL    HW1  878   0.388   1.125   2.668
  272SOL    HW2  879   0.433   1.124   2.510
  273SOL     OW  880   1.271   1.797   2.453
  273SOL    HW1  881   1.315   1.861   2.389
  273SOL    HW2  882   1.221   1.849   2.523
  274SOL     OW  883   1.032   0.549   1.878
  274SOL    HW1  884   0.991   0.631   1.839
  274SOL    HW2  885   1.096   0.575   1.951
  275SOL     OW  886   0.078   0.556   3.248
  275SOL    HW1  887   0.170   0.555   3.207
  275SOL    HW2  888   0.072   0.630   3.315
  276SOL     OW  889   0.561   0.222   3.009
  276SOL    HW1  890   0.599   0.138   3.046
  276SOL    HW2  891   0.473   0.241   3.053
  277SOL     OW  892   0.866   0.454   2.504
  277SOL    HW1  893   0.834   0.526   2.442
  277SOL    HW2  894   0.890   0.373   2.451
  278SOL     OW  895   1.017   0.039   2.615
  278SOL    HW1  896   0.945   0.044   2.546
  278SOL    HW2  897   0.993  -0.030   2.684
  279SOL     OW  898   1.429   1.173   2.729
  279SOL    HW1  899   1.374   1.089   2.722
  279SOL    HW2  900   1.455   1.202   2.637
  280SOL     OW  901   1.466   0.590   2.854
  280SOL    HW1  902   1.436   0.495   2.861
  280SOL    HW2  903   1.539   0.606   2.920
  281SOL     OW  904   1.857   0.833   2.239
  281SOL    HW1  905   1.899   0.769   2.303
  281SOL    HW2  906   1.819   0.782   2.161
  282SOL     OW  907   0.488   1.385   2.036
  282SOL    HW1  908   0.401   1.370   2.083
  282SOL    HW2  909   0.471   1.411   1.941
  283SOL     OW  910   1.664   1.280   2.519
  283SOL    HW1  911   1.763   1.288   2.533
  283SOL    HW2  912   1.619   1.364   2.550
  284SOL     OW  913   1.390   0.575   1.940
  284SOL    HW1  914   1.336   0.554   2.021
  284SOL    HW2  915   1.481   0.534   1.949
  285SOL     OW  916   0.527   0.256   2.190
  285SOL    HW1  917   0.554   0.197   2.115
  285SOL    HW2  918   0.527   0.351   2.159
  286SOL     OW  919   1.064   1.347   3.202
  286SOL    HW1  920   0.984   1.324   3.257
  286SOL    HW2  921   1.147   1.321   3.251
  287SOL     OW  922   1.111   1.195   2.962
  287SOL    HW1  923   1.071   1.239   3.043
  287SOL    HW2  924   1.070   1.232   2.879
  288SOL     OW  925   1.638   1.099   2.941
  288SOL    HW1  926   1.643   1.180   3.000
  288SOL    HW2  927   1.552   1.101   2.890
  289SOL     OW  928   0.915   0.089   3.264
  289SOL    HW1  929   0.940   0.069   3.169
  289SOL    HW2  930   0.987   0.145   3.306
  290SOL     OW  931   0.705   1.050   2.230
  290SOL    HW1  932   0.691   1.057   2.329
  290SOL    HW2  933   0.789   0.999   2.212
  291SOL     OW  934   0.410   0.813   3.113
  291SOL    HW1  935   0.496   0.825   3.163
  291SOL    HW2  936   0.368   0.726   3.140
  292SOL     OW  937   1.274   0.386   3.124
  292SOL    HW1  938   1.295   0.460   3.188
  292SOL    HW2  939   1.185   0.403   3.081
  293SOL     OW  940   0.064   1.564   3.193
  293SOL    HW1  941   0.018   1.646   3.159
  293SOL    HW2  942   0.162   1.583   3.202
  294SOL     OW  943   0.367   1.100   2.363
  294SOL    HW1  944   0.360   1.183   2.307
  294SOL    HW2  945   0.371   1.020   2.303
  295SOL     OW  946   0.566   0.537   2.727
  295SOL    HW1  947   0.578   0.603   2.653
  295SOL    HW2  948   0.612   0.571   2.810
  296SOL     OW  949   1.252   1.348   2.250
  296SOL    HW1  950   1.302   1.425   2.290
  296SOL    HW2  951   1.157   1.350   2.282
  297SOL     OW  952   1.272   1.445   3.004
  297SOL    HW1  953   1.319   1.458   3.091
  297SOL    HW2  954   1.206   1.371   3.013
  298SOL     OW  955   1.582   0.639   2.334
  298SOL    HW1  956   1.551   0.700   2.407
  298SOL    HW2  957   1.632   0.691   2.265
  299SOL     OW  958   0.354   1.510   3.191
  299SOL    HW1  959   0.333   1.466   3.104
  299SOL    HW2  960   0.451   1.536   3.194
  300SOL     OW  961   0.402   0.751   3.460
  300SOL    HW1  962   0.470   0.806   3.413
  300SOL    HW2  963   0.442   0.663   3.487
  301SOL     OW  964   1.587   0.779   3.532
  301SOL    HW1  965   1.495   0.817   3.527
  301SOL    HW2  966   1.647   0.826   3.467
  302SOL     OW  967   0.573   0.870   2.891
  302SOL    HW1  968   0.617   0.959   2.882
  302SOL    HW2  969   0.510   0.870   2.968
  303SOL     OW  970   1.360   0.862   2.907
  303SOL    HW1  971   1.285   0.862   2.841
  303SOL    HW2  972   1.397   0.770   2.916
  304SOL     OW  973   1.209   0.525   2.137
  304SOL    HW1  974   1.222   0.441   2.191
  304SOL    HW2  975   1.180   0.599   2.197
  305SOL     OW  976   0.307   0.213   3.093
  305SOL    HW1  977   0.284   0.250   3.183
  305SOL    HW2  978   0.277   0.118   3.087
  306SOL     OW  979   0.037   1.310   3.144
  306SOL    HW1  980   0.090   1.261   3.212
  306SOL    HW2  981   0.059   1.408   3.149
  307SOL     OW  982   0.732   0.634   2.926
  307SOL    HW1  983   0.791   0.608   2.850
  307SOL    HW2  984   0.704   0.730   2.915
  308SOL     OW  985   0.307   0.063   2.480
  308SOL    HW1  986   0.296   0.157   2.513
  308SOL    HW2  987   0.302   0.000   2.557
  309SOL     OW  988   1.622   0.367   2.236
  309SOL    HW1  989   1.624   0.291   2.300
  309SOL    HW2  990   1.574   0.444   2.276
  310SOL     OW  991   1.023   0.766   2.828
  310SOL    HW1  992   1.038   0.787   2.924
  310SOL    HW2  993   0.993   0.671   2.819
  311SOL     OW  994   0.980   1.573   3.562
  311SOL    HW1  995   0.960   1.617   3.474
  311SOL    HW2  996   1.019   1.482   3.546
  312SOL     OW  997   1.540   0.274   1.987
  312SOL    HW1  998   1.479   0.199   2.010
  312SOL    HW2  999   1.562   0.326   2.070
  313SOL     OW 1000   1.303   0.838   1.904
  313SOL    HW1 1001   1.337   0.745   1.919
  313SOL    HW2 1002   1.321   0.865   1.809
  314SOL     OW 1003   1.068   1.333   2.711
  314SOL    HW1 1004   1.075   1.249   2.656
  314SOL    HW2 1005   1.130   1.402   2.675
  315SOL     OW 1006   0.319   0.810   2.811
  315SOL    HW1 1007   0.412   0.846   2.816
  315SOL    HW2 1008   0.313   0.725   2.863
  316SOL     OW 1009   0.339   0.509   2.868
  316SOL    HW1 1010   0.287   0.426   2.851
  316SOL    HW2 1011   0.416   0.514   2.804
  317SOL     OW 1012   1.138   0.380   3.540
  317SOL    HW1 1013   1.093   0.443   3.604
  317SOL    HW2 1014   1.231   0.411   3.523
  318SOL     OW 1015   1.160   0.207   3.339
  318SOL    HW1 1016   1.160   0.271   3.416
  318SOL    HW2 1017   1.188   0.255   3.256
  319SOL     OW 1018   0.008   1.326   2.062
  319SOL    HW1 1019  -0.085   1.347   2.031
  319SOL    HW2 1020   0.018   1.227   2.075
  320SOL     OW 1021   0.088   1.801   2.789
  320SOL    HW1 1022   0.046   1.715   2.762
  320SOL    HW2 1023   0.182   1.804   2.755
  321SOL     OW 1024   0.504   1.568   2.772
  321SOL    HW1 1025   0.570   1.642   2.781
  321SOL    HW2 1026   0.548   1.489   2.730
  322SOL     OW 1027   1.002   0.796   3.100
  322SOL    HW1 1028   1.043   0.764   3.186
  322SOL    HW2 1029   0.906   0.769   3.097
  323SOL     OW 1030   0.040   0.544   2.976
  323SOL    HW1 1031   0.125   0.511   2.935
  323SOL    HW2 1032   0.053   0.559   3.074
  324SOL     OW 1033   0.815   0.572   2.187
  324SOL    HW1 1034   0.822   0.483   2.141
  324SOL    HW2 1035   0.721   0.606   2.179
  325SOL     OW 1036   1.657   0.604   3.068
  325SOL    HW1 1037   1.619   0.535   3.130
  325SOL    HW2 1038   1.739   0.568   3.024
  326SOL     OW 1039   0.252   1.564   3.606
  326SOL    HW1 1040   0.222   1.621   3.682
  326SOL    HW2 1041   0.245   1.467   3.632
  327SOL     OW 1042   0.671   0.464   3.131
  327SOL    HW1 1043   0.637   0.375   3.101
  327SOL    HW2 1044   0.697   0.518   3.051
  328SOL     OW 1045   0.930   1.678   3.327
  328SOL    HW1 1046   0.906   1.660   3.232
  328SOL    HW2 1047   0.960   1.772   3.337
  329SOL     OW 1048   0.473   0.500   2.053
  329SOL    HW1 1049   0.534   0.580   2.057
  329SOL    HW2 1050   0.378   0.531   2.060
  330SOL     OW 1051   0.159   1.137   3.328
  330SOL    HW1 1052   0.181   1.076   3.404
  330SOL    HW2 1053   0.169   1.088   3.242
  331SOL     OW 1054   1.347   1.059   3.096
  331SOL    HW1 1055   1.371   0.996   3.022
  331SOL    HW2 1056   1.257   1.099   3.078
  332SOL     OW 1057   1.302   0.855   2.171
  332SOL    HW1 1058   1.216   0.824   2.213
  332SOL    HW2 1059   1.298   0.841   2.072
  333SOL     OW 1060   1.759   1.747   3.016
  333SOL    HW1 1061   1.820   1.777   2.943
  333SOL    HW2 1062   1.721   1.658   2.994
  334SOL     OW 1063   1.252   1.731   2.990
  334SOL    HW1 1064   1.336   1.736   2.936
  334SOL    HW2 1065   1.229   1.635   3.008
  335SOL     OW 1066   0.083   1.258   2.884
  335SOL    HW1 1067   0.078   1.257   2.984
  335SOL    HW2 1068   0.000   1.217   2.846
  336SOL     OW 1069   1.726   0.135   2.385
  336SOL    HW1 1070   1.799   0.118   2.318
  336SOL    HW2 1071   1.695   0.048   2.423
  337SOL     OW 1072   1.388   1.573   2.339
  337SOL    HW1 1073   1.455   1.585   2.265
  337SOL    HW2 1074   1.348   1.662   2.362
  338SOL     OW 1075   1.280   0.927   2.534
  338SOL    HW1 1076   1.340   0.846   2.536
  338SOL    HW2 1077   1.320   0.996   2.474
  339SOL     OW 1078   0.672   1.616   2.016
  339SOL    HW1 1079   0.681   1.626   1.917
  339SOL    HW2 1080   0.632   1.527   2.037
  340SOL     OW 1081   1.650   1.720   3.256
  340SOL    HW1 1082   1.703   1.730   3.172
  340SOL    HW2 1083   1.623   1.810   3.290
  341SOL     OW 1084   1.841   0.175   2.825
  341SOL    HW1 1085   1.880   0.090   2.789
  341SOL    HW2 1086   1.743   0.177   2.806
  342SOL     OW 1087   0.263   0.326   2.582
  342SOL    HW1 1088   0.184   0.377   2.548
  342SOL    HW2 1089   0.254   0.311   2.680
  343SOL     OW 1090   0.822   1.002   3.234
  343SOL    HW1 1091   0.862   1.001   3.142
  343SOL    HW2 1092   0.832   1.094   3.274
  344SOL     OW 1093   0.916   0.910   2.153
  344SOL    HW1 1094   0.979   0.948   2.085
  344SOL    HW2 1095   0.956   0.827   2.192
  345SOL     OW 1096   0.372   1.288   3.352
  345SOL    HW1 1097   0.359   1.381   3.318
  345SOL    HW2 1098   0.288   1.236   3.339
  346SOL     OW 1099   1.614   1.292   3.151
  346SOL    HW1 1100   1.674   1.295   3.231
  346SOL    HW2 1101   1.539   1.356   3.164
  347SOL     OW 1102   1.039   1.098   2.558
  347SOL    HW1 1103   0.969   1.051   2.612
  347SOL    HW2 1104   1.098   1.030   2.515
  348SOL     OW 1105   1.014   0.236   2.833
  348SOL    HW1 1106   1.006   0.200   2.740
  348SOL    HW2 1107   1.012   0.160   2.898
  349SOL     OW 1108   0.590   1.487   2.353
  349SOL    HW1 1109   0.632   1.429   2.283
  349SOL    HW2 1110   0.546   1.566   2.309
  350SOL     OW 1111   1.709   0.385   3.243
  350SOL    HW1 1112   1.782   0.454   3.247
  350SOL    HW2 1113   1.737   0.310   3.184
  351SOL     OW 1114   0.255   1.348   2.152
  351SOL    HW1 1115   0.159   1.349   2.125
  351SOL    HW2 1116   0.267   1.401   2.236
  352SOL     OW 1117   0.672   0.203   3.351
  352SOL    HW1 1118   0.762   0.187   3.311
  352SOL    HW2 1119   0.680   0.208   3.450
  353SOL     OW 1120   0.075   0.345   1.895
  353SOL    HW1 1121  -0.017   0.317   1.866
  353SOL    HW2 1122   0.106   0.422   1.839
  354SOL     OW 1123   1.440   0.856   3.260
  354SOL    HW1 1124   1.383   0.908   3.197
  354SOL    HW2 1125   1.536   0.868   3.236
  355SOL     OW 1126   0.072   0.166   2.180
  355SOL    HW1 1127   0.055   0.249   2.126
  355SOL    HW2 1128   0.162   0.129   2.158
  356SOL     OW 1129   1.183   1.335   1.981
  356SOL    HW1 1130   1.084   1.324   1.983
  356SOL    HW2 1131   1.217   1.350   2.074
  357SOL     OW 1132   0.613   0.842   3.293
  357SOL    HW1 1133   0.669   0.923   3.276
  357SOL    HW2 1134   0.672   0.762   3.296
  358SOL     OW 1135   1.493   1.767   2.821
  358SOL    HW1 1136   1.526   1.831   2.752
  358SOL    HW2 1137   1.559   1.761   2.896
  359SOL     OW 1138   0.390   1.741   3.422
  359SOL    HW1 1139   0.299   1.782   3.420
  359SOL    HW2 1140   0.383   1.647   3.454
  360SOL     OW 1141   1.674   0.883   3.116
  360SOL    HW1 1142   1.647   0.794   3.079
  360SOL    HW2 1143   1.675   0.951   3.043
  361SOL     OW 1144   1.225   0.325   2.311
  361SOL    HW1 1145   1.290   0.251   2.300
  361SOL    HW2 1146   1.245   0.375   2.395
  362SOL     OW 1147   0.594   0.745   2.514
  362SOL    HW1 1148   0.644   0.830   2.495
  362SOL    HW2 1149   0.506   0.747   2.466
  363SOL     OW 1150   1.777   0.342   3.504
  363SOL    HW1 1151   1.760   0.373   3.410
  363SOL    HW2 1152   1.693   0.305   3.542
  364SOL     OW 1153   1.730   0.934   3.379
  364SOL    HW1 1154   1.768   1.025   3.394
  364SOL    HW2 1155   1.722   0.917   3.280
  365SOL     OW 1156   0.859   1.374   1.878
  365SOL    HW1 1157   0.813   1.389   1.966
  365SOL    HW2 1158   0.903   1.459   1.848
  366SOL     OW 1159   0.661   1.790   2.815
  366SOL    HW1 1160   0.615   1.878   2.802
  366SOL    HW2 1161   0.760   1.802   2.808
  367SOL     OW 1162   0.859   0.956   2.723
  367SOL    HW1 1163   0.913   0.887   2.771
  367SOL    HW2 1164   0.827   1.025   2.789
  368SOL     OW 1165   1.083   0.984   1.949
  368SOL    HW1 1166   1.060   1.037   1.867
  368SOL    HW2 1167   1.164   0.928   1.930
  369SOL     OW 1168   1.861   1.569   2.713
  369SOL    HW1 1169   1.790   1.557   2.643
  369SOL    HW2 1170   1.862   1.490   2.773
  370SOL     OW 1171   0.079   1.240   2.515
  370SOL    HW1 1172   0.078   1.193   2.603
  370SOL    HW2 1173   0.161   1.212   2.464
  371SOL     OW 1174   1.824   0.192   3.089
  371SOL    HW1 1175   1.820   0.102   3.133
  371SOL    HW2 1176   1.827   0.181   2.990
  372SOL     OW 1177   0.428   0.424   2.382
  372SOL    HW1 1178   0.458   0.352   2.320
  372SOL    HW2 1179   0.389   0.384   2.465
  373SOL     OW 1180   1.705   1.487   2.966
  373SOL    HW1 1181   1.612   1.462   2.939
  373SOL    HW2 1182   1.731   1.437   3.048
  374SOL     OW 1183   0.317   0.547   3.142
  374SOL    HW1 1184   0.355   0.488   3.214
  374SOL    HW2 1185   0.357   0.521   3.054
  375SOL     OW 1186   0.812   1.586   2.549
  375SOL    HW1 1187   0.844   1.596   2.455
  375SOL    HW2 1188   0.733   1.524   2.551
  376SOL     OW 1189   1.424   0.214   2.974
  376SOL    HW1 1190   1.476   0.149   3.029
  376SOL    HW2 1191   1.375   0.277   3.035
  377SOL     OW 1192   1.001   0.034   3.016
  377SOL    HW1 1193   0.938  -0.038   2.985
  377SOL    HW2 1194   1.094  -0.002   3.016
  378SOL     OW 1195   0.770   1.330   2.163
  378SOL    HW1 1196   0.724   1.243   2.180
  378SOL    HW2 1197   0.861   1.327   2.204
  379SOL     OW 1198   0.618   1.567   3.146
  379SOL    HW1 1199   0.613   1.649   3.203
  379SOL    HW2 1200   0.707   1.564   3.101
  380SOL     OW 1201   1.352   0.052   2.030
  380SOL    HW1 1202   1.387   0.011   1.946
  380SOL    HW2 1203   1.262   0.014   2.050
  381SOL     OW 1204   1.300   0.453   2.553
  381SOL    HW1 1205   1.241   0.533   2.557
  381SOL    HW2 1206   1.315   0.418   2.646
  382SOL     OW 1207   1.593   0.221   2.744
  382SOL    HW1 1208   1.509   0.220   2.798
  382SOL    HW2 1209   1.595   0.304   2.688
  383SOL     OW 1210   0.039   1.077   2.162
  383SOL    HW1 1211   0.138   1.066   2.153
  383SOL    HW2 1212  -0.001   0.991   2.194
  384SOL     OW 1213   0.875   1.646   2.199
  384SOL    HW1 1214   0.798   1.611   2.145
  384SOL    HW2 1215   0.843   1.717   2.261
  385SOL     OW 1216   0.230   2.490   0.113
  385SOL    HW1 1217   0.137   2.488   0.150
  385SOL    HW2 1218   0.231   2.451   0.021
  386SOL     OW 1219   0.225   2.137   0.996
  386SOL    HW1 1220   0.260   2.120   1.088
  386SOL    HW2 1221   0.137   2.092   0.984
  387SOL     OW 1222   0.019   2.230   0.647
  387SOL    HW1 1223  -0.063   2.273   0.686
  387SOL    HW2 1224  -0.009   2.157   0.584
  388SOL     OW 1225   0.569   3.137   1.165
  388SOL    HW1 1226   0.476   3.130   1.128
  388SOL    HW2 1227   0.580   3.226   1.209
  389SOL     OW 1228   1.555   3.373   0.703
  389SOL    HW1 1229   1.498   3.357   0.784
  389SOL    HW2 1230   1.496   3.383   0.623
  390SOL     OW 1231   1.135   2.565   0.717
  390SOL    HW1 1232   1.192   2.643   0.692
  390SOL    HW2 1233   1.075   2.591   0.793
  391SOL     OW 1234   1.755   2.469   0.231
  391SOL    HW1 1235   1.743   2.456   0.132
  391SOL    HW2 1236   1.725   2.388   0.280
  392SOL     OW 1237   0.768   3.006   1.023
  392SOL    HW1 1238   0.690   3.023   1.083
  392SOL    HW2 1239   0.802   3.093   0.987
  393SOL     OW 1240   0.850   2.660   1.823
  393SOL    HW1 1241   0.846   2.736   1.888
  393SOL    HW2 1242   0.872   2.696   1.732
  394SOL     OW 1243   0.685   2.874   0.665
  394SOL    HW1 1244   0.754   2.858   0.735
  394SOL    HW2 1245   0.612   2.931   0.703
  395SOL     OW 1246   0.686   3.023   1.803
  395SOL    HW1 1247   0.746   3.102   1.817
  395SOL    HW2 1248   0.600   3.054   1.762
  396SOL     OW 1249   0.335   3.297   1.061
  396SOL    HW1 1250   0.257   3.266   1.008
  396SOL    HW2 1251   0.393   3.355   1.004
  397SOL     OW 1252   1.460   3.367   1.339
  397SOL    HW1 1253   1.484   3.461   1.365
  397SOL    HW2 1254   1.444   3.313   1.421
  398SOL     OW 1255   0.438   2.254   1.499
  398SOL    HW1 1256   0.520   2.198   1.508
  398SOL    HW2 1257   0.357   2.196   1.503
  399SOL     OW 1258   1.603   2.309   0.737
  399SOL    HW1 1259   1.529   2.355   0.687
  399SOL    HW2 1260   1.654   2.377   0.790
  400SOL     OW 1261   1.127   3.203   1.690
  400SOL    HW1 1262   1.174   3.203   1.778
  400SOL    HW2 1263   1.079   3.116   1.679
  401SOL     OW 1264   0.230   3.296   0.538
  401SOL    HW1 1265   0.204   3.392   0.538
  401SOL    HW2 1266   0.159   3.242   0.583
  402SOL     OW 1267   0.240   2.953   0.886
  402SOL    HW1 1268   0.254   2.869   0.938
  402SOL    HW2 1269   0.185   3.017   0.941
  403SOL     OW 1270   0.606   2.826   0.123
  403SOL    HW1 1271   0.613   2.910   0.069
  403SOL    HW2 1272   0.652   2.839   0.211
  404SOL     OW 1273   1.594   1.976   1.480
  404SOL    HW1 1274   1.576   2.043   1.408
  404SOL    HW2 1275   1.591   2.022   1.569
  405SOL     OW 1276   0.122   2.505   0.563
  405SOL    HW1 1277   0.077   2.417   0.580
  405SOL    HW2 1278   0.121   2.559   0.647
  406SOL     OW 1279   0.027   3.458   0.117
  406SOL    HW1 1280   0.008   3.362   0.138
  406SOL    HW2 1281  -0.006   3.516   0.192
  407SOL     OW 1282   1.689   2.784   0.612
  407SOL    HW1 1283   1.784   2.755   0.620
  407SOL    HW2 1284   1.681   2.849   0.537
  408SOL     OW 1285   1.641   2.970   0.432
  408SOL    HW1 1286   1.727   2.972   0.380
  408SOL    HW2 1287   1.655   3.017   0.520
  409SOL     OW 1288   0.113   2.599   1.597
  409SOL    HW1 1289   0.201   2.586   1.642
  409SOL    HW2 1290   0.100   2.696   1.575
  410SOL     OW 1291   0.613   3.227   0.726
  410SOL    HW1 1292   0.564   3.140   0.735
  410SOL    HW2 1293   0.590   3.270   0.639
  411SOL     OW 1294   1.293   3.090   1.423
  411SOL    HW1 1295   1.330   3.017   1.365
  411SOL    HW2 1296   1.345   3.095   1.508
  412SOL     OW 1297   0.809   1.866   0.502
  412SOL    HW1 1298   0.849   1.957   0.493
  412SOL    HW2 1299   0.709   1.874   0.508
  413SOL     OW 1300   0.197   2.838   1.264
  413SOL    HW1 1301   0.286   2.793   1.250
  413SOL    HW2 1302   0.124   2.773   1.245
  414SOL     OW 1303   1.525   2.861   0.190
  414SOL    HW1 1304   1.462   2.785   0.203
  414SOL    HW2 1305   1.573   2.879   0.276
  415SOL     OW 1306   0.317   2.113   1.801
  415SOL    HW1 1307   0.388   2.184   1.807
  415SOL    HW2 1308   0.229   2.152   1.829
  416SOL     OW 1309   1.466   3.279   0.953
  416SOL    HW1 1310   1.407   3.285   1.033
  416SOL    HW2 1311   1.451   3.191   0.907
  417SOL     OW 1312   0.598   2.591   0.270
  417SOL    HW1 1313   0.622   2.660   0.202
  417SOL    HW2 1314   0.520   2.624   0.324
  418SOL     OW 1315   1.281   2.207   0.944
  418SOL    HW1 1316   1.195   2.157   0.931
  418SOL    HW2 1317   1.343   2.153   1.000
  419SOL     OW 1318   0.807   2.467   1.465
  419SOL    HW1 1319   0.760   2.464   1.554
  419SOL    HW2 1320   0.756   2.412   1.399
  420SOL     OW 1321   1.394   2.331   1.674
  420SOL    HW1 1322   1.374   2.374   1.762
  420SOL    HW2 1323   1.472   2.269   1.683
  421SOL     OW 1324   0.973   2.752   1.572
  421SOL    HW1 1325   1.019   2.668   1.543
  421SOL    HW2 1326   0.917   2.786   1.497
  422SOL     OW 1327   0.991   2.272   1.242
  422SOL    HW1 1328   0.914   2.306   1.296
  422SOL    HW2 1329   0.957   2.221   1.163
  423SOL     OW 1330   1.041   2.563   0.429
  423SOL    HW1 1331   1.067   2.559   0.525
  423SOL    HW2 1332   0.956   2.512   0.415
  424SOL     OW 1333   0.076   2.673   0.789
  424SOL    HW1 1334   0.175   2.661   0.798
  424SOL    HW2 1335   0.052   2.768   0.810
  425SOL     OW 1336   0.865   2.210   0.195
  425SOL    HW1 1337   0.924   2.273   0.146
  425SOL    HW2 1338   0.884   2.116   0.166
  426SOL     OW 1339   1.719   2.447   1.831
  426SOL    HW1 1340   1.693   2.536   1.795
  426SOL    HW2 1341   1.717   2.379   1.758
  427SOL     OW 1342   1.362   3.006   0.545
  427SOL    HW1 1343   1.445   2.977   0.497
  427SOL    HW2 1344   1.313   3.073   0.489
  428SOL     OW 1345   0.550   2.058   0.885
  428SOL    HW1 1346   0.545   2.053   0.985
  428SOL    HW2 1347   0.552   2.154   0.856
  429SOL     OW 1348   1.008   3.318   0.477
  429SOL    HW1 1349   0.962   3.390   0.425
  429SOL    HW2 1350   1.004   3.338   0.575
  430SOL     OW 1351   1.795   2.928   0.873
  430SOL    HW1 1352   1.733   2.913   0.797
  430SOL    HW2 1353   1.743   2.939   0.958
  431SOL     OW 1354   1.227   3.412   1.506
  431SOL    HW1 1355   1.233   3.335   1.570
  431SOL    HW2 1356   1.175   3.386   1.426
  432SOL     OW 1357   0.321   2.805   0.242
  432SOL    HW1 1358   0.403   2.844   0.200
  432SOL    HW2 1359   0.294   2.723   0.193
  433SOL     OW 1360   1.458   2.597   0.728
  433SOL    HW1 1361   1.453   2.532   0.803
  433SOL    HW2 1362   1.538   2.656   0.741
  434SOL     OW 1363   0.461   3.128   1.727
  434SOL    HW1 1364   0.411   3.129   1.641
  434SOL    HW2 1365   0.398   3.110   1.803
  435SOL     OW 1366   1.111   3.638   0.237
  435SOL    HW1 1367   1.051   3.576   0.287
  435SOL    HW2 1368   1.142   3.594   0.152
  436SOL     OW 1369   0.202   2.147   1.498
  436SOL    HW1 1370   0.122   2.207   1.485
  436SOL    HW2 1371   0.192   2.098   1.584
  437SOL     OW 1372   1.632   3.239   0.081
  437SOL    HW1 1373   1.600   3.333   0.071
  437SOL    HW2 1374   1.556   3.176   0.069
  438SOL     OW 1375   1.400   1.969   0.426
  438SOL    HW1 1376   1.376   1.932   0.336
  438SOL    HW2 1377   1.499   1.985   0.430
  439SOL     OW 1378   0.382   2.562   0.480
  439SOL    HW1 1379   0.427   2.472   0.477
  439SOL    HW2 1380   0.288   2.551   0.513
  440SOL     OW 1381   1.547   2.084   1.729
  440SOL    HW1 1382   1.542   2.121   1.821
  440SOL    HW2 1383   1.475   2.015   1.717
  441SOL     OW 1384   0.614   1.984   0.117
  441SOL    HW1 1385   0.712   1.962   0.124
  441SOL    HW2 1386   0.583   1.967   0.024
  442SOL     OW 1387   0.781   2.126   1.749
  442SOL    HW1 1388   0.848   2.065   1.792
  442SOL    HW2 1389   0.708   2.145   1.814
  443SOL     OW 1390   1.351   2.452   1.433
  443SOL    HW1 1391   1.379   2.409   1.518
  443SOL    HW2 1392   1.376   2.548   1.434
  444SOL     OW 1393   0.803   3.264   0.924
  444SOL    HW1 1394   0.893   3.278   0.882
  444SOL    HW2 1395   0.732   3.266   0.853
  445SOL     OW 1396   0.922   2.365   0.899
  445SOL    HW1 1397   0.897   2.356   0.803
  445SOL    HW2 1398   0.970   2.283   0.930
  446SOL     OW 1399   0.539   1.926   0.512
  446SOL    HW1 1400   0.458   1.927   0.570
  446SOL    HW2 1401   0.542   2.009   0.457
  447SOL     OW 1402   1.434   3.050   0.041
  447SOL    HW1 1403   1.466   2.974   0.098
  447SOL    HW2 1404   1.342   3.077   0.071
  448SOL     OW 1405   0.297   1.897   0.171
  448SOL    HW1 1406   0.346   1.981   0.150
  448SOL    HW2 1407   0.359   1.832   0.216
  449SOL     OW 1408   0.935   2.098   0.480
  449SOL    HW1 1409   0.887   2.139   0.402
  449SOL    HW2 1410   1.034   2.096   0.461
  450SOL     OW 1411   1.076   2.545   1.464
  450SOL    HW1 1412   0.996   2.484   1.467
  450SOL    HW2 1413   1.157   2.492   1.440
  451SOL     OW 1414   1.227   3.432   0.793
  451SOL    HW1 1415   1.248   3.506   0.728
  451SOL    HW2 1416   1.295   3.432   0.866
  452SOL     OW 1417   0.459   3.014   0.741
  452SOL    HW1 1418   0.388   2.987   0.806
  452SOL    HW2 1419   0.433   2.986   0.648
  453SOL     OW 1420   1.032   2.411   0.016
  453SOL    HW1 1421   0.991   2.493  -0.023
  453SOL    HW2 1422   1.096   2.437   0.089
  454SOL     OW 1423   0.078   2.418   1.386
  454SOL    HW1 1424   0.170   2.417   1.345
  454SOL    HW2 1425   0.072   2.492   1.453
  455SOL     OW 1426   0.561   2.084   1.147
  455SOL    HW1 1427   0.599   2.000   1.184
  455SOL    HW2 1428   0.473   2.103   1.191
  456SOL     OW 1429   0.866   2.316   0.642
  456SOL    HW1 1430   0.834   2.388   0.580
  456SOL    HW2 1431   0.890   2.235   0.589
  457SOL     OW 1432   1.017   1.901   0.753
  457SOL    HW1 1433   0.945   1.906   0.684
  457SOL    HW2 1434   0.993   1.832   0.822
  458SOL     OW 1435   1.429   3.035   0.867
  458SOL    HW1 1436   1.374   2.951   0.860
  458SOL    HW2 1437   1.455   3.064   0.775
  459SOL     OW 1438   1.466   2.452   0.992
  459SOL    HW1 1439   1.436   2.357   0.999
  459SOL    HW2 1440   1.539   2.468   1.058
  460SOL     OW 1441   1.857   2.695   0.377
  460SOL    HW1 1442   1.899   2.631   0.441
  460SOL    HW2 1443   1.819   2.644   0.299
  461SOL     OW 1444   0.488   3.247   0.174
  461SOL    HW1 1445   0.401   3.232   0.221
  461SOL    HW2 1446   0.471   3.273   0.079
  462SOL     OW 1447   1.664   3.142   0.657
  462SOL    HW1 1448   1.763   3.150   0.671
  462SOL    HW2 1449   1.619   3.226   0.688
  463SOL     OW 1450   1.390   2.437   0.078
  463SOL    HW1 1451   1.336   2.416   0.159
  463SOL    HW2 1452   1.481   2.396   0.087
  464SOL     OW 1453   0.527   2.118   0.328
  464SOL    HW1 1454   0.554   2.059   0.253
  464SOL    HW2 1455   0.527   2.213   0.297
  465SOL     OW 1456   1.754   3.085   1.588
  465SOL    HW1 1457   1.845   3.046   1.575
  465SOL    HW2 1458   1.762   3.181   1.612
  466SOL     OW 1459   1.064   3.209   1.340
  466SOL    HW1 1460   0.984   3.186   1.395
  466SOL    HW2 1461   1.147   3.183   1.389
  467SOL     OW 1462   1.111   3.057   1.100
  467SOL    HW1 1463   1.071   3.101   1.181
  467SOL    HW2 1464   1.070   3.094   1.017
  468SOL     OW 1465   1.638   2.961   1.079
  468SOL    HW1 1466   1.643   3.042   1.138
  468SOL    HW2 1467   1.552   2.963   1.028
  469SOL     OW 1468   0.915   1.951   1.402
  469SOL    HW1 1469   0.940   1.931   1.307
  469SOL    HW2 1470   0.987   2.007   1.444
  470SOL     OW 1471   0.980   2.978   1.719
  470SOL    HW1 1472   0.881   2.984   1.729
  470SOL    HW2 1473   1.003   2.898   1.663
  471SOL     OW 1474   0.705   2.912   0.368
  471SOL    HW1 1475   0.691   2.919   0.467
  471SOL    HW2 1476   0.789   2.861   0.350
  472SOL     OW 1477   0.410   2.675   1.251
  472SOL    HW1 1478   0.496   2.687   1.301
  472SOL    HW2 1479   0.368   2.588   1.278
  473SOL     OW 1480   1.274   2.248   1.262
  473SOL    HW1 1481   1.295   2.322   1.326
  473SOL    HW2 1482   1.185   2.265   1.219
  474SOL     OW 1483   0.064   3.426   1.331
  474SOL    HW1 1484   0.018   3.508   1.297
  474SOL    HW2 1485   0.162   3.445   1.340
  475SOL     OW 1486   0.367   2.962   0.501
  475SOL    HW1 1487   0.360   3.045   0.445
  475SOL    HW2 1488   0.371   2.882   0.441
  476SOL     OW 1489   0.566   2.399   0.865
  476SOL    HW1 1490   0.578   2.465   0.791
  476SOL    HW2 1491   0.612   2.433   0.948
  477SOL     OW 1492   1.252   3.210   0.388
  477SOL    HW1 1493   1.302   3.287   0.428
  477SOL    HW2 1494   1.157   3.212   0.420
  478SOL     OW 1495   1.272   3.307   1.142
  478SOL    HW1 1496   1.319   3.320   1.229
  478SOL    HW2 1497   1.206   3.233   1.151
  479SOL     OW 1498   1.582   2.501   0.472
  479SOL    HW1 1499   1.551   2.562   0.545
  479SOL    HW2 1500   1.632   2.553   0.403
  480SOL     OW 1501   0.354   3.372   1.329
  480SOL    HW1 1502   0.333   3.328   1.242
  480SOL    HW2 1503   0.451   3.398   1.332
  481SOL     OW 1504   0.402   2.613   1.598
  481SOL    HW1 1505   0.470   2.668   1.551
  481SOL    HW2 1506   0.442   2.525   1.625
  482SOL     OW 1507   1.587   2.641   1.670
  482SOL    HW1 1508   1.495   2.679   1.665
  482SOL    HW2 1509   1.647   2.688   1.605
  483SOL     OW 1510   0.504   1.912   1.740
  483SOL    HW1 1511   0.462   1.855   1.670
  483SOL    HW2 1512   0.438   1.981   1.772
  484SOL     OW 1513   0.573   2.732   1.029
  484SOL    HW1 1514   0.617   2.821   1.020
  484SOL    HW2 1515   0.510   2.732   1.106
  485SOL     OW 1516   1.360   2.724   1.045
  485SOL    HW1 1517   1.285   2.724   0.979
  485SOL    HW2 1518   1.397   2.632   1.054
  486SOL     OW 1519   1.209   2.387   0.275
  486SOL    HW1 1520   1.222   2.303   0.329
  486SOL    HW2 1521   1.180   2.461   0.335
  487SOL     OW 1522   0.307   2.075   1.231
  487SOL    HW1 1523   0.284   2.112   1.321
  487SOL    HW2 1524   0.277   1.980   1.225
  488SOL     OW 1525   0.037   3.172   1.282
  488SOL    HW1 1526   0.090   3.123   1.350
  488SOL    HW2 1527   0.059   3.270   1.287
  489SOL     OW 1528   0.732   2.496   1.064
  489SOL    HW1 1529   0.791   2.470   0.988
  489SOL    HW2 1530   0.704   2.592   1.053
  490SOL     OW 1531   1.728   2.797   1.854
  490SOL    HW1 1532   1.682   2.790   1.765
  490SOL    HW2 1533   1.666   2.841   1.920
  491SOL     OW 1534   0.307   1.925   0.618
  491SOL    HW1 1535   0.296   2.019   0.651
  491SOL    HW2 1536   0.302   1.862   0.695
  492SOL     OW 1537   1.622   2.229   0.374
  492SOL    HW1 1538   1.624   2.153   0.438
  492SOL    HW2 1539   1.574   2.306   0.414
  493SOL     OW 1540   1.023   2.628   0.966
  493SOL    HW1 1541   1.038   2.649   1.062
  493SOL    HW2 1542   0.993   2.533   0.957
  494SOL     OW 1543   1.859   3.380   1.605
  494SOL    HW1 1544   1.873   3.407   1.510
  494SOL    HW2 1545   1.942   3.402   1.658
  495SOL     OW 1546   0.350   2.760   1.804
  495SOL    HW1 1547   0.426   2.804   1.852
  495SOL    HW2 1548   0.385   2.713   1.722
  496SOL     OW 1549   1.540   2.136   0.125
  496SOL    HW1 1550   1.479   2.061   0.148
  496SOL    HW2 1551   1.562   2.188   0.208
  497SOL     OW 1552   1.303   2.700   0.042
  497SOL    HW1 1553   1.337   2.607   0.057
  497SOL    HW2 1554   1.321   2.727  -0.053
  498SOL     OW 1555   1.068   3.195   0.849
  498SOL    HW1 1556   1.075   3.111   0.794
  498SOL    HW2 1557   1.130   3.264   0.813
  499SOL     OW 1558   0.319   2.672   0.949
  499SOL    HW1 1559   0.412   2.708   0.954
  499SOL    HW2 1560   0.313   2.587   1.001
  500SOL     OW 1561   0.339   2.371   1.006
  500SOL    HW1 1562   0.287   2.288   0.989
  500SOL    HW2 1563   0.416   2.376   0.942
  501SOL     OW 1564   1.138   2.242   1.678
  501SOL    HW1 1565   1.093   2.305   1.742
  501SOL    HW2 1566   1.231   2.273   1.661
  502SOL     OW 1567   1.160   2.069   1.477
  502SOL    HW1 1568   1.160   2.133   1.554
  502SOL    HW2 1569   1.188   2.117   1.394
  503SOL     OW 1570   0.008   3.188   0.200
  503SOL    HW1 1571  -0.085   3.209   0.169
  503SOL    HW2 1572   0.018   3.089   0.213
  504SOL     OW 1573   1.002   2.658   1.238
  504SOL    HW1 1574   1.043   2.626   1.324
  504SOL    HW2 1575   0.906   2.631   1.235
  505SOL     OW 1576   0.040   2.406   1.114
  505SOL    HW1 1577   0.125   2.373   1.073
  505SOL    HW2 1578   0.053   2.421   1.212
  506SOL     OW 1579   0.189   2.382   1.722
  506SOL    HW1 1580   0.248   2.342   1.652
  506SOL    HW2 1581   0.131   2.453   1.681
  507SOL     OW 1582   1.369   2.812   1.660
  507SOL    HW1 1583   1.408   2.901   1.680
  507SOL    HW2 1584   1.379   2.792   1.563
  508SOL     OW 1585   0.815   2.434   0.325
  508SOL    HW1 1586   0.822   2.345   0.279
  508SOL    HW2 1587   0.721   2.468   0.317
  509SOL     OW 1588   1.657   2.466   1.206
  509SOL    HW1 1589   1.619   2.397   1.268
  509SOL    HW2 1590   1.739   2.430   1.162
  510SOL     OW 1591   0.252   3.426   1.744
  510SOL    HW1 1592   0.222   3.483   1.820
  510SOL    HW2 1593   0.245   3.329   1.770
  511SOL     OW 1594   0.671   2.326   1.269
  511SOL    HW1 1595   0.637   2.237   1.239
  511SOL    HW2 1596   0.697   2.380   1.189
  512SOL     OW 1597   0.473   2.362   0.191
  512SOL    HW1 1598   0.534   2.442   0.195
  512SOL    HW2 1599   0.378   2.393   0.198
  513SOL     OW 1600   0.159   2.999   1.466
  513SOL    HW1 1601   0.181   2.938   1.542
  513SOL    HW2 1602   0.169   2.950   1.380
  514SOL     OW 1603   1.347   2.921   1.234
  514SOL    HW1 1604   1.371   2.858   1.160
  514SOL    HW2 1605   1.257   2.961   1.216
  515SOL     OW 1606   1.302   2.717   0.309
  515SOL    HW1 1607   1.216   2.686   0.351
  515SOL    HW2 1608   1.298   2.703   0.210
  516SOL     OW 1609   0.083   3.120   1.022
  516SOL    HW1 1610   0.078   3.119   1.122
  516SOL    HW2 1611   0.000   3.079   0.984
  517SOL     OW 1612   0.688   3.524   1.716
  517SOL    HW1 1613   0.632   3.605   1.725
  517SOL    HW2 1614   0.740   3.528   1.630
  518SOL     OW 1615   0.903   1.948   0.133
  518SOL    HW1 1616   0.954   1.949   0.047
  518SOL    HW2 1617   0.959   1.906   0.204
  519SOL     OW 1618   1.726   1.997   0.523
  519SOL    HW1 1619   1.799   1.980   0.456
  519SOL    HW2 1620   1.695   1.910   0.561
  520SOL     OW 1621   1.280   2.789   0.672
  520SOL    HW1 1622   1.340   2.708   0.674
  520SOL    HW2 1623   1.320   2.858   0.612
  521SOL     OW 1624   0.830   3.135   1.422
  521SOL    HW1 1625   0.825   3.168   1.517
  521SOL    HW2 1626   0.744   3.154   1.376
  522SOL     OW 1627   1.841   2.037   0.963
  522SOL    HW1 1628   1.880   1.952   0.927
  522SOL    HW2 1629   1.743   2.039   0.944
  523SOL     OW 1630   0.263   2.188   0.720
  523SOL    HW1 1631   0.184   2.239   0.686
  523SOL    HW2 1632   0.254   2.173   0.818
  524SOL     OW 1633   1.194   3.474   0.031
  524SOL    HW1 1634   1.200   3.381   0.068
  524SOL    HW2 1635   1.135   3.474  -0.049
  525SOL     OW 1636   0.822   2.864   1.372
  525SOL    HW1 1637   0.862   2.863   1.280
  525SOL    HW2 1638   0.832   2.956   1.412
  526SOL     OW 1639   0.916   2.772   0.291
  526SOL    HW1 1640   0.979   2.810   0.223
  526SOL    HW2 1641   0.956   2.689   0.330
  527SOL     OW 1642   0.372   3.150   1.490
  527SOL    HW1 1643   0.359   3.243   1.456
  527SOL    HW2 1644   0.288   3.098   1.477
  528SOL     OW 1645   1.614   3.154   1.289
  528SOL    HW1 1646   1.674   3.157   1.369
  528SOL    HW2 1647   1.539   3.218   1.302
  529SOL     OW 1648   1.039   2.960   0.696
  529SOL    HW1 1649   0.969   2.913   0.750
  529SOL    HW2 1650   1.098   2.892   0.653
  530SOL     OW 1651   1.014   2.098   0.971
  530SOL    HW1 1652   1.006   2.062   0.878
  530SOL    HW2 1653   1.012   2.022   1.036
  531SOL     OW 1654   1.709   2.247   1.381
  531SOL    HW1 1655   1.782   2.316   1.385
  531SOL    HW2 1656   1.737   2.172   1.322
  532SOL     OW 1657   0.255   3.210   0.290
  532SOL    HW1 1658   0.159   3.211   0.263
  532SOL    HW2 1659   0.267   3.263   0.374
  533SOL     OW 1660   0.105   2.875   1.726
  533SOL    HW1 1661   0.028   2.842   1.780
  533SOL    HW2 1662   0.190   2.845   1.768
  534SOL     OW 1663   0.672   2.065   1.489
  534SOL    HW1 1664   0.762   2.049   1.449
  534SOL    HW2 1665   0.680   2.070   1.588
  535SOL     OW 1666   0.075   2.207   0.033
  535SOL    HW1 1667  -0.017   2.179   0.004
  535SOL    HW2 1668   0.106   2.284  -0.023
  536SOL     OW 1669   1.440   2.718   1.398
  536SOL    HW1 1670   1.383   2.770   1.335
  536SOL    HW2 1671   1.536   2.730   1.374
  537SOL     OW 1672   0.072   2.028   0.318
  537SOL    HW1 1673   0.055   2.111   0.264
  537SOL    HW2 1674   0.162   1.991   0.296
  538SOL     OW 1675   1.183   3.197   0.119
  538SOL    HW1 1676   1.084   3.186   0.121
  538SOL    HW2 1677   1.217   3.212   0.212
  539SOL     OW 1678   0.613   2.704   1.431
  539SOL    HW1 1679   0.669   2.785   1.414
  539SOL    HW2 1680   0.672   2.624   1.434
  540SOL     OW 1681   0.716   2.427   1.708
  540SOL    HW1 1682   0.735   2.492   1.782
  540SOL    HW2 1683   0.776   2.347   1.717
  541SOL     OW 1684   1.450   3.082   1.633
  541SOL    HW1 1685   1.441   3.072   1.732
  541SOL    HW2 1686   1.546   3.075   1.607
  542SOL     OW 1687   1.674   2.745   1.254
  542SOL    HW1 1688   1.647   2.656   1.217
  542SOL    HW2 1689   1.675   2.813   1.181
  543SOL     OW 1690   1.225   2.187   0.449
  543SOL    HW1 1691   1.290   2.113   0.438
  543SOL    HW2 1692   1.245   2.237   0.533
  544SOL     OW 1693   0.594   2.607   0.652
  544SOL    HW1 1694   0.644   2.692   0.633
  544SOL    HW2 1695   0.506   2.609   0.604
  545SOL     OW 1696   1.730   2.796   1.517
  545SOL    HW1 1697   1.768   2.887   1.532
  545SOL    HW2 1698   1.722   2.779   1.418
  546SOL     OW 1699   0.859   3.236   0.016
  546SOL    HW1 1700   0.813   3.251   0.104
  546SOL    HW2 1701   0.903   3.321  -0.014
  547SOL     OW 1702   0.859   2.818   0.861
  547SOL    HW1 1703   0.913   2.749   0.909
  547SOL    HW2 1704   0.827   2.887   0.927
  548SOL     OW 1705   1.083   2.846   0.087
  548SOL    HW1 1706   1.060   2.899   0.005
  548SOL    HW2 1707   1.164   2.790   0.068
  549SOL     OW 1708   0.221   3.176   1.844
  549SOL    HW1 1709   0.156   3.103   1.823
  549SOL    HW2 1710   0.225   3.190   1.942
  550SOL     OW 1711   0.079   3.102   0.653
  550SOL    HW1 1712   0.078   3.055   0.741
  550SOL    HW2 1713   0.161   3.074   0.602
  551SOL     OW 1714   0.672   3.253   1.624
  551SOL    HW1 1715   0.594   3.203   1.662
  551SOL    HW2 1716   0.669   3.348   1.655
  552SOL     OW 1717   1.824   2.054   1.227
  552SOL    HW1 1718   1.820   1.964   1.271
  552SOL    HW2 1719   1.827   2.043   1.128
  553SOL     OW 1720   0.428   2.286   0.520
  553SOL    HW1 1721   0.458   2.214   0.458
  553SOL    HW2 1722   0.389   2.246   0.603
  554SOL     OW 1723   1.705   3.349   1.104
  554SOL    HW1 1724   1.612   3.324   1.077
  554SOL    HW2 1725   1.731   3.299   1.186
  555SOL     OW 1726   0.317   2.409   1.280
  555SOL    HW1 1727   0.355   2.350   1.352
  555SOL    HW2 1728   0.357   2.383   1.192
  556SOL     OW 1729   1.424   2.076   1.112
  556SOL    HW1 1730   1.476   2.011   1.167
  556SOL    HW2 1731   1.375   2.139   1.173
  557SOL     OW 1732   1.001   1.896   1.154
  557SOL    HW1 1733   0.938   1.824   1.123
  557SOL    HW2 1734   1.094   1.860   1.154
  558SOL     OW 1735   0.770   3.192   0.301
  558SOL    HW1 1736   0.724   3.105   0.318
  558SOL    HW2 1737   0.861   3.189   0.342
  559SOL     OW 1738   0.618   3.429   1.284
  559SOL    HW1 1739   0.613   3.511   1.341
  559SOL    HW2 1740   0.707   3.426   1.239
  560SOL     OW 1741   1.352   1.914   0.168
  560SOL    HW1 1742   1.387   1.873   0.084
  560SOL    HW2 1743   1.262   1.876   0.188
  561SOL     OW 1744   1.300   2.315   0.691
  561SOL    HW1 1745   1.241   2.395   0.695
  561SOL    HW2 1746   1.315   2.280   0.784
  562SOL     OW 1747   1.593   2.083   0.882
  562SOL    HW1 1748   1.509   2.082   0.936
  562SOL    HW2 1749   1.595   2.166   0.826
  563SOL     OW 1750   0.039   2.939   0.300
  563SOL    HW1 1751   0.138   2.928   0.291
  563SOL    HW2 1752  -0.001   2.853   0.332
  564SOL     OW 1753   0.230   2.490   1.975
  564SOL    HW1 1754   0.137   2.488   2.012
  564SOL    HW2 1755   0.231   2.451   1.883
  565SOL     OW 1756   0.225   2.137   2.858
  565SOL    HW1 1757   0.260   2.120   2.950
  565SOL    HW2 1758   0.137   2.092   2.846
  566SOL     OW 1759   0.019   2.230   2.509
  566SOL    HW1 1760  -0.063   2.273   2.548
  566SOL    HW2 1761  -0.009   2.157   2.446
  567SOL     OW 1762   0.569   3.137   3.027
  567SOL    HW1 1763   0.476   3.130   2.990
  567SOL    HW2 1764   0.580   3.226   3.071
  568SOL     OW 1765   1.555   3.373   2.565
  568SOL    HW1 1766   1.498   3.357   2.646
  568SOL    HW2 1767   1.496   3.383   2.485
  569SOL     OW 1768   1.135   2.565   2.579
  569SOL    HW1 1769   1.192   2.643   2.554
  569SOL    HW2 1770   1.075   2.591   2.655
  570SOL     OW 1771   1.755   2.469   2.093
  570SOL    HW1 1772   1.743   2.456   1.994
  570SOL    HW2 1773   1.725   2.388   2.142
  571SOL     OW 1774   0.768   3.006   2.885
  571SOL    HW1 1775   0.690   3.023   2.945
  571SOL    HW2 1776   0.802   3.093   2.849
  572SOL     OW 1777   0.685   2.874   2.527
  572SOL    HW1 1778   0.754   2.858   2.597
  572SOL    HW2 1779   0.612   2.931   2.565
  573SOL     OW 1780   0.335   3.297   2.923
  573SOL    HW1 1781   0.257   3.266   2.870
  573SOL    HW2 1782   0.393   3.355   2.866
  574SOL     OW 1783   1.460   3.367   3.201
  574SOL    HW1 1784   1.484   3.461   3.227
  574SOL    HW2 1785   1.444   3.313   3.283
  575SOL     OW 1786   0.438   2.254   3.361
  575SOL    HW1 1787   0.520   2.198   3.370
  575SOL    HW2 1788   0.357   2.196   3.365
  576SOL     OW 1789   1.603   2.309   2.599
  576SOL    HW1 1790   1.529   2.355   2.549
  576SOL    HW2 1791   1.654   2.377   2.652
  577SOL     OW 1792   0.230   3.296   2.400
  577SOL    HW1 1793   0.204   3.392   2.400
  577SOL    HW2 1794   0.159   3.242   2.445
  578SOL     OW 1795   0.240   2.953   2.748
  578SOL    HW1 1796   0.254   2.869   2.800
  578SOL    HW2 1797   0.185   3.017   2.803
  579SOL     OW 1798   0.606   2.826   1.985
  579SOL    HW1 1799   0.613   2.910   1.931
  579SOL    HW2 1800   0.652   2.839   2.073
  580SOL     OW 1801   1.594   1.976   3.342
  580SOL    HW1 1802   1.576   2.043   3.270
  580SOL    HW2 1803   1.591   2.022   3.431
  581SOL     OW 1804   0.122   2.505   2.425
  581SOL    HW1 1805   0.077   2.417   2.442
  581SOL    HW2 1806   0.121   2.559   2.509
  582SOL     OW 1807   0.027   3.458   1.979
  582SOL    HW1 1808   0.008   3.362   2.000
  582SOL    HW2 1809  -0.006   3.516   2.054
  583SOL     OW 1810   1.689   2.784   2.474
  583SOL    HW1 1811   1.784   2.755   2.482
  583SOL    HW2 1812   1.681   2.849   2.399
  584SOL     OW 1813   1.641   2.970   2.294
  584SOL    HW1 1814   1.727   2.972   2.242
  584SOL    HW2 1815   1.655   3.017   2.382
  585SOL     OW 1816   0.613   3.227   2.588
  585SOL    HW1 1817   0.564   3.140   2.597
  585SOL    HW2 1818   0.590   3.270   2.501
  586SOL     OW 1819   0.809   1.866   2.364
  586SOL    HW1 1820   0.849   1.957   2.355
  586SOL    HW2 1821   0.709   1.874   2.370
  587SOL     OW 1822   0.197   2.838   3.126
  587SOL    HW1 1823   0.286   2.793   3.112
  587SOL    HW2 1824   0.124   2.773   3.107
  588SOL     OW 1825   1.525   2.861   2.052
  588SOL    HW1 1826   1.462   2.785   2.065
  588SOL    HW2 1827   1.573   2.879   2.138
  589SOL     OW 1828   1.466   3.279   2.815
  589SOL    HW1 1829   1.407   3.285   2.895
  589SOL    HW2 1830   1.451   3.191   2.769
  590SOL     OW 1831   0.598   2.591   2.132
  590SOL    HW1 1832   0.622   2.660   2.064
  590SOL    HW2 1833   0.520   2.624   2.186
  591SOL     OW 1834   1.281   2.207   2.806
  591SOL    HW1 1835   1.195   2.157   2.793
  591SOL    HW2 1836   1.343   2.153   2.862
  592SOL     OW 1837   0.807   2.467   3.327
  592SOL    HW1 1838   0.760   2.464   3.416
  592SOL    HW2 1839   0.756   2.412   3.261
  593SOL     OW 1840   0.973   2.752   3.434
  593SOL    HW1 1841   1.019   2.668   3.405
  593SOL    HW2 1842   0.917   2.786   3.359
  594SOL     OW 1843   0.991   2.272   3.104
  594SOL    HW1 1844   0.914   2.306   3.158
  594SOL    HW2 1845   0.957   2.221   3.025
  595SOL     OW 1846   1.041   2.563   2.291
  595SOL    HW1 1847   1.067   2.559   2.387
  595SOL    HW2 1848   0.956   2.512   2.277
  596SOL     OW 1849   0.076   2.673   2.651
  596SOL    HW1 1850   0.175   2.661   2.660
  596SOL    HW2 1851   0.052   2.768   2.672
  597SOL     OW 1852   0.865   2.210   2.057
  597SOL    HW1 1853   0.924   2.273   2.008
  597SOL    HW2 1854   0.884   2.116   2.028
  598SOL     OW 1855   1.362   3.006   2.407
  598SOL    HW1 1856   1.445   2.977   2.359
  598SOL    HW2 1857   1.313   3.073   2.351
  599SOL     OW 1858   0.550   2.058   2.747
  599SOL    HW1 1859   0.545   2.053   2.847
  599SOL    HW2 1860   0.552   2.154   2.718
  600SOL     OW 1861   1.008   3.318   2.339
  600SOL    HW1 1862   0.962   3.390   2.287
  600SOL    HW2 1863   1.004   3.338   2.437
  601SOL     OW 1864   1.795   2.928   2.735
  601SOL    HW1 1865   1.733   2.913   2.659
  601SOL    HW2 1866   1.743   2.939   2.820
  602SOL     OW 1867   0.321   2.805   2.104
  602SOL    HW1 1868   0.403   2.844   2.062
  602SOL    HW2 1869   0.294   2.723   2.055
  603SOL     OW 1870   1.458   2.597   2.590
  603SOL    HW1 1871   1.453   2.532   2.665
  603SOL    HW2 1872   1.538   2.656   2.603
  604SOL     OW 1873   1.111   3.638   2.099
  604SOL    HW1 1874   1.051   3.576   2.149
  604SOL    HW2 1875   1.142   3.594   2.014
  605SOL     OW 1876   1.632   3.239   1.943
  605SOL    HW1 1877   1.600   3.333   1.933
  605SOL    HW2 1878   1.556   3.176   1.931
  606SOL     OW 1879   1.400   1.969   2.288
  606SOL    HW1 1880   1.376   1.932   2.198
  606SOL    HW2 1881   1.499   1.985   2.292
  607SOL     OW 1882   0.382   2.562   2.342
  607SOL    HW1 1883   0.427   2.472   2.339
  607SOL    HW2 1884   0.288   2.551   2.375
  608SOL     OW 1885   0.614   1.984   1.979
  608SOL    HW1 1886   0.712   1.962   1.986
  608SOL    HW2 1887   0.583   1.967   1.886
  609SOL     OW 1888   0.803   3.264   2.786
  609SOL    HW1 1889   0.893   3.278   2.744
  609SOL    HW2 1890   0.732   3.266   2.715
  610SOL     OW 1891   0.922   2.365   2.761
  610SOL    HW1 1892   0.897   2.356   2.665
  610SOL    HW2 1893   0.970   2.283   2.792
  611SOL     OW 1894   0.539   1.926   2.374
  611SOL    HW1 1895   0.458   1.927   2.432
  611SOL    HW2 1896   0.542   2.009   2.319
  612SOL     OW 1897   1.434   3.050   1.903
  612SOL    HW1 1898   1.466   2.974   1.960
  612SOL    HW2 1899   1.342   3.077   1.933
  613SOL     OW 1900   0.297   1.897   2.033
  613SOL    HW1 1901   0.346   1.981   2.012
  613SOL    HW2 1902   0.359   1.832   2.078
  614SOL     OW 1903   0.935   2.098   2.342
  614SOL    HW1 1904   0.887   2.139   2.264
  614SOL    HW2 1905   1.034   2.096   2.323
  615SOL     OW 1906   1.227   3.432   2.655
  615SOL    HW1 1907   1.248   3.506   2.590
  615SOL    HW2 1908   1.295   3.432   2.728
  616SOL     OW 1909   0.459   3.014   2.603
  616SOL    HW1 1910   0.388   2.987   2.668
  616SOL    HW2 1911   0.433   2.986   2.510
  617SOL     OW 1912   1.032   2.411   1.878
  617SOL    HW1 1913   0.991   2.493   1.839
  617SOL    HW2 1914   1.096   2.437   1.951
  618SOL     OW 1915   0.078   2.418   3.248
  618SOL    HW1 1916   0.170   2.417   3.207
  618SOL    HW2 1917   0.072   2.492   3.315
  619SOL     OW 1918   0.561   2.084   3.009
  619SOL    HW1 1919   0.599   2.000   3.046
  619SOL    HW2 1920   0.473   2.103   3.053
  620SOL     OW 1921   0.866   2.316   2.504
  620SOL    HW1 1922   0.834   2.388   2.442
  620SOL    HW2 1923   0.890   2.235   2.451
  621SOL     OW 1924   1.017   1.901   2.615
  621SOL    HW1 1925   0.945   1.906   2.546
  621SOL    HW2 1926   0.993   1.832   2.684
  622SOL     OW 1927   1.429   3.035   2.729
  622SOL    HW1 1928   1.374   2.951   2.722
  622SOL    HW2 1929   1.455   3.064   2.637
  623SOL     OW 1930   1.466   2.452   2.854
  623SOL    HW1 1931   1.436   2.357   2.861
  623SOL    HW2 1932   1.539   2.468   2.920
  624SOL     OW 1933   1.857   2.695   2.239
  624SOL    HW1 1934   1.899   2.631   2.303
  624SOL    HW2 1935   1.819   2.644   2.161
  625SOL     OW 1936   0.488   3.247   2.036
  625SOL    HW1 1937   0.401   3.232   2.083
  625SOL    HW2 1938   0.471   3.273   1.941
  626SOL     OW 1939   1.664   3.142   2.519
  626SOL    HW1 1940   1.763   3.150   2.533
  626SOL    HW2 1941   1.619   3.226   2.550
  627SOL     OW 1942   1.390   2.437   1.940
  627SOL    HW1 1943   1.336   2.416   2.021
  627SOL    HW2 1944   1.481   2.396   1.949
  628SOL     OW 1945   0.527   2.118   2.190
  628SOL    HW1 1946   0.554   2.059   2.115
  628SOL    HW2 1947   0.527   2.213   2.159
  629SOL     OW 1948   1.064   3.209   3.202
  629SOL    HW1 1949   0.984   3.186   3.257
  629SOL    HW2 1950   1.147   3.183   3.251
  630SOL     OW 1951   1.111   3.057   2.962
  630SOL    HW1 1952   1.071   3.101   3.043
  630SOL    HW2 1953   1.070   3.094   2.879
  631SOL     OW 1954   1.638   2.961   2.941
  631SOL    HW1 1955   1.643   3.042   3.000
  631SOL    HW2 1956   1.552   2.963   2.890
  632SOL     OW 1957   0.915   1.951   3.264
  632SOL    HW1 1958   0.940   1.931   3.169
  632SOL    HW2 1959   0.987   2.007   3.306
  633SOL     OW 1960   0.705   2.912   2.230
  633SOL    HW1 1961   0.691   2.919   2.329
  633SOL    HW2 1962   0.789   2.861   2.212
  634SOL     OW 1963   0.410   2.675   3.113
  634SOL    HW1 1964   0.496   2.687   3.163
  634SOL    HW2 1965   0.368   2.588   3.140
  635SOL     OW 1966   1.274   2.248   3.124
  635SOL    HW1 1967   1.295   2.322   3.188
  635SOL    HW2 1968   1.185   2.265   3.081
  636SOL     OW 1969   0.064   3.426   3.193
  636SOL    HW1 1970   0.018   3.508   3.159
  636SOL    HW2 1971   0.162   3.445   3.202
  637SOL     OW 1972   0.367   2.962   2.363
  637SOL    HW1 1973   0.360   3.045   2.307
  637SOL    HW2 1974   0.371   2.882   2.303
  638SOL     OW 1975   0.566   2.399   2.727
  638SOL    HW1 1976   0.578   2.465   2.653
  638SOL    HW2 1977   0.612   2.433   2.810
  639SOL     OW 1978   1.252   3.210   2.250
  639SOL    HW1 1979   1.302   3.287   2.290
  639SOL    HW2 1980   1.157   3.212   2.282
  640SOL     OW 1981   1.272   3.307   3.004
  640SOL    HW1 1982   1.319   3.320   3.091
  640SOL    HW2 1983   1.206   3.233   3.013
  641SOL     OW 1984   1.582   2.501   2.334
  641SOL    HW1 1985   1.551   2.562   2.407
  641SOL    HW2 1986   1.632   2.553   2.265
  642SOL     OW 1987   0.354   3.372   3.191
  642SOL    HW1 1988   0.333   3.328   3.104
  642SOL    HW2 1989   0.451   3.398   3.194
  643SOL     OW 1990   0.402   2.613   3.460
  643SOL    HW1 1991   0.470   2.668   3.413
  643SOL    HW2 1992   0.442   2.525   3.487
  644SOL     OW 1993   1.587   2.641   3.532
  644SOL    HW1 1994   1.495   2.679   3.527
  644SOL    HW2 1995   1.647   2.688   3.467
  645SOL     OW 1996   0.573   2.732   2.891
  645SOL    HW1 1997   0.617   2.821   2.882
  645SOL    HW2 1998   0.510   2.732   2.968
  646SOL     OW 1999   1.360   2.724   2.907
  646SOL    HW1 2000   1.285   2.724   2.841
  646SOL    HW2 2001   1.397   2.632   2.916
  647SOL     OW 2002   1.209   2.387   2.137
  647SOL    HW1 2003   1.222   2.303   2.191
  647SOL    HW2 2004   1.180   2.461   2.197
  648SOL     OW 2005   0.307   2.075   3.093
  648SOL    HW1 2006   0.284   2.112   3.183
  648SOL    HW2 2007   0.277   1.980   3.087
  649SOL     OW 2008   0.037   3.172   3.144
  649SOL    HW1 2009   0.090   3.123   3.212
  649SOL    HW2 2010   0.059   3.270   3.149
  650SOL     OW 2011   0.732   2.496   2.926
  650SOL    HW1 2012   0.791   2.470   2.850
  650SOL    HW2 2013   0.704   2.592   2.915
  651SOL     OW 2014   0.307   1.925   2.480
  651SOL    HW1 2015   0.296   2.019   2.513
  651SOL    HW2 2016   0.302   1.862   2.557
  652SOL     OW 2017   1.622   2.229   2.236
  652SOL    HW1 2018   1.624   2.153   2.300
  652SOL    HW2 2019   1.574   2.306   2.276
  653SOL     OW 2020   1.023   2.628   2.828
  653SOL    HW1 2021   1.038   2.649   2.924
  653SOL    HW2 2022   0.993   2.533   2.819
  654SOL     OW 2023   1.540   2.136   1.987
  654SOL    HW1 2024   1.479   2.061   2.010
  654SOL    HW2 2025   1.562   2.188   2.070
  655SOL     OW 2026   1.303   2.700   1.904
  655SOL    HW1 2027   1.337   2.607   1.919
  655SOL    HW2 2028   1.321   2.727   1.809
  656SOL     OW 2029   1.068   3.195   2.711
  656SOL    HW1 2030   1.075   3.111   2.656
  656SOL    HW2 2031   1.130   3.264   2.675
  657SOL     OW 2032   0.319   2.672   2.811
  657SOL    HW1 2033   0.412   2.708   2.816
  657SOL    HW2 2034   0.313   2.587   2.863
  658SOL     OW 2035   0.339   2.371   2.868
  658SOL    HW1 2036   0.287   2.288   2.851
  658SOL    HW2 2037   0.416   2.376   2.804
  659SOL     OW 2038   1.138   2.242   3.540
  659SOL    HW1 2039   1.093   2.305   3.604
  659SOL    HW2 2040   1.231   2.273   3.523
  660SOL     OW 2041   1.160   2.069   3.339
  660SOL    HW1 2042   1.160   2.133   3.416
  660SOL    HW2 2043   1.188   2.117   3.256
  661SOL     OW 2044   0.008   3.188   2.062
  661SOL    HW1 2045  -0.085   3.209   2.031
  661SOL    HW2 2046   0.018   3.089   2.075
  662SOL     OW 2047   1.002   2.658   3.100
  662SOL    HW1 2048   1.043   2.626   3.186
  662SOL    HW2 2049   0.906   2.631   3.097
  663SOL     OW 2050   0.040   2.406   2.976
  663SOL    HW1 2051   0.125   2.373   2.935
  663SOL    HW2 2052   0.053   2.421   3.074
  664SOL     OW 2053   0.815   2.434   2.187
  664SOL    HW1 2054   0.822   2.345   2.141
  664SOL    HW2 2055   0.721   2.468   2.179
  665SOL     OW 2056   1.657   2.466   3.068
  665SOL    HW1 2057   1.619   2.397   3.130
  665SOL    HW2 2058   1.739   2.430   3.024
  666SOL     OW 2059   0.671   2.326   3.131
  666SOL    HW1 2060   0.637   2.237   3.101
  666SOL    HW2 2061   0.697   2.380   3.051
  667SOL     OW 2062   0.473   2.362   2.053
  667SOL    HW1 2063   0.534   2.442   2.057
  667SOL    HW2 2064   0.378   2.393   2.060
  668SOL     OW 2065   0.159   2.999   3.328
  668SOL    HW1 2066   0.181   2.938   3.404
  668SOL    HW2 2067   0.169   2.950   3.242
  669SOL     OW 2068   1.347   2.921   3.096
  669SOL    HW1 2069   1.371   2.858   3.022
  669SOL    HW2 2070   1.257   2.961   3.078
  670SOL     OW 2071   1.302   2.717   2.171
  670SOL    HW1 2072   1.216   2.686   2.213
  670SOL    HW2 2073   1.298   2.703   2.072
  671SOL     OW 2074   0.083   3.120   2.884
  671SOL    HW1 2075   0.078   3.119   2.984
  671SOL    HW2 2076   0.000   3.079   2.846
  672SOL     OW 2077   1.726   1.997   2.385
  672SOL    HW1 2078   1.799   1.980   2.318
  672SOL    HW2 2079   1.695   1.910   2.423
  673SOL     OW 2080   1.280   2.789   2.534
  673SOL    HW1 2081   1.340   2.708   2.536
  673SOL    HW2 2082   1.320   2.858   2.474
  674SOL     OW 2083   1.841   2.037   2.825
  674SOL    HW1 2084   1.880   1.952   2.789
  674SOL    HW2 2085   1.743   2.039   2.806
  675SOL     OW 2086   0.263   2.188   2.582
  675SOL    HW1 2087   0.184   2.239   2.548
  675SOL    HW2 2088   0.254   2.173   2.680
  676SOL     OW 2089   0.822   2.864   3.234
  676SOL    HW1 2090   0.862   2.863   3.142
  676SOL    HW2 2091   0.832   2.956   3.274
  677SOL     OW 2092   0.916   2.772   2.153
  677SOL    HW1 2093   0.979   2.810   2.085
  677SOL    HW2 2094   0.956   2.689   2.192
  678SOL     OW 2095   0.372   3.150   3.352
  678SOL    HW1 2096   0.359   3.243   3.318
  678SOL    HW2 2097   0.288   3.098   3.339
  679SOL     OW 2098   1.614   3.154   3.151
  679SOL    HW1 2099   1.674   3.157   3.231
  679SOL    HW2 2100   1.539   3.218   3.164
  680SOL     OW 2101   1.039   2.960   2.558
  680SOL    HW1 2102   0.969   2.913   2.612
  680SOL    HW2 2103   1.098   2.892   2.515
  681SOL     OW 2104   1.014   2.098   2.833
  681SOL    HW1 2105   1.006   2.062   2.740
  681SOL    HW2 2106   1.012   2.022   2.898
  682SOL     OW 2107   1.709   2.247   3.243
  682SOL    HW1 2108   1.782   2.316   3.247
  682SOL    HW2 2109   1.737   2.172   3.184
  683SOL     OW 2110   0.255   3.210   2.152
  683SOL    HW1 2111   0.159   3.211   2.125
  683SOL    HW2 2112   0.267   3.263   2.236
  684SOL     OW 2113   0.672   2.065   3.351
  684SOL    HW1 2114   0.762   2.049   3.311
  684SOL    HW2 2115   0.680   2.070   3.450
  685SOL     OW 2116   0.075   2.207   1.895
  685SOL    HW1 2117  -0.017   2.179   1.866
  685SOL    HW2 2118   0.106   2.284   1.839
  686SOL     OW 2119   1.440   2.718   3.260
  686SOL    HW1 2120   1.383   2.770   3.197
  686SOL    HW2 2121   1.536   2.730   3.236
  687SOL     OW 2122   0.072   2.028   2.180
  687SOL    HW1 2123   0.055   2.111   2.126
  687SOL    HW2 2124   0.162   1.991   2.158
  688SOL     OW 2125   1.183   3.197   1.981
  688SOL    HW1 2126   1.084   3.186   1.983
  688SOL    HW2 2127   1.217   3.212   2.074
  689SOL     OW 2128   0.613   2.704   3.293
  689SOL    HW1 2129   0.669   2.785   3.276
  689SOL    HW2 2130   0.672   2.624   3.296
  690SOL     OW 2131   0.390   3.603   3.422
  690SOL    HW1 2132   0.299   3.644   3.420
  690SOL    HW2 2133   0.383   3.509   3.454
  691SOL     OW 2134   1.674   2.745   3.116
  691SOL    HW1 2135   1.647   2.656   3.079
  691SOL    HW2 2136   1.675   2.813   3.043
  692SOL     OW 2137   1.225   2.187   2.311
  692SOL    HW1 2138   1.290   2.113   2.300
  692SOL    HW2 2139   1.245   2.237   2.395
  693SOL     OW 2140   0.594   2.607   2.514
  693SOL    HW1 2141   0.644   2.692   2.495
  693SOL    HW2 2142   0.506   2.609   2.466
  694SOL     OW 2143   1.777   2.204   3.504
  694SOL    HW1 2144   1.760   2.235   3.410
  694SOL    HW2 2145   1.693   2.167   3.542
  695SOL     OW 2146   1.730   2.796   3.379
  695SOL    HW1 2147   1.768   2.887   3.394
  695SOL    HW2 2148   1.722   2.779   3.280
  696SOL     OW 2149   0.859   3.236   1.878
  696SOL    HW1 2150   0.813   3.251   1.966
  696SOL    HW2 2151   0.903   3.321   1.848
  697SOL     OW 2152   0.859   2.818   2.723
  697SOL    HW1 2153   0.913   2.749   2.771
  697SOL    HW2 2154   0.827   2.887   2.789
  698SOL     OW 2155   1.083   2.846   1.949
  698SOL    HW1 2156   1.060   2.899   1.867
  698SOL    HW2 2157   1.164   2.790   1.930
  699SOL     OW 2158   0.079   3.102   2.515
  699SOL    HW1 2159   0.078   3.055   2.603
  699SOL    HW2 2160   0.161   3.074   2.464
  700SOL     OW 2161   1.824   2.054   3.089
  700SOL    HW1 2162   1.820   1.964   3.133
  700SOL    HW2 2163   1.827   2.043   2.990
  701SOL     OW 2164   0.428   2.286   2.382
  701SOL    HW1 2165   0.458   2.214   2.320
  701SOL    HW2 2166   0.389   2.246   2.465
  702SOL     OW 2167   1.705   3.349   2.966
  702SOL    HW1 2168   1.612   3.324   2.939
  702SOL    HW2 2169   1.731   3.299   3.048
  703SOL     OW 2170   0.317   2.409   3.142
  703SOL    HW1 2171   0.355   2.350   3.214
  703SOL    HW2 2172   0.357   2.383   3.054
  704SOL     OW 2173   1.424   2.076   2.974
  704SOL    HW1 2174   1.476   2.011   3.029
  704SOL    HW2 2175   1.375   2.139   3.035
  705SOL     OW 2176   1.001   1.896   3.016
  705SOL    HW1 2177   0.938   1.824   2.985
  705SOL    HW2 2178   1.094   1.860   3.016
  706SOL     OW 2179   0.770   3.192   2.163
  706SOL    HW1 2180   0.724   3.105   2.180
  706SOL    HW2 2181   0.861   3.189   2.204
  707SOL     OW 2182   0.618   3.429   3.146
  707SOL    HW1 2183   0.613   3.511   3.203
  707SOL    HW2 2184   0.707   3.426   3.101
  708SOL     OW 2185   1.352   1.914   2.030
  708SOL    HW1 2186   1.387   1.873   1.946
  708SOL    HW2 2187   1.262   1.876   2.050
  709SOL     OW 2188   1.300   2.315   2.553
  709SOL    HW1 2189   1.241   2.395   2.557
  709SOL    HW2 2190   1.315   2.280   2.646
  710SOL     OW 2191   1.593   2.083   2.744
  710SOL    HW1 2192   1.509   2.082   2.798
  710SOL    HW2 2193   1.595   2.166   2.688
  711SOL     OW 2194   0.039   2.939   2.162
  711SOL    HW1 2195   0.138   2.928   2.153
  711SOL    HW2 2196  -0.001   2.853   2.194
  712SOL     OW 2197   2.092   0.628   0.113
  712SOL    HW1 2198   1.999   0.626   0.150
  712SOL    HW2 2199   2.093   0.589   0.021
  713SOL     OW 2200   2.087   0.275   0.996
  713SOL    HW1 2201   2.122   0.258   1.088
  713SOL    HW2 2202   1.999   0.230   0.984
  714SOL     OW 2203   1.881   0.368   0.647
  714SOL    HW1 2204   1.799   0.411   0.686
  714SOL    HW2 2205   1.853   0.295   0.584
  715SOL     OW 2206   2.431   1.275   1.165
  715SOL    HW1 2207   2.338   1.268   1.128
  715SOL    HW2 2208   2.442   1.364   1.209
  716SOL     OW 2209   3.417   1.511   0.703
  716SOL    HW1 2210   3.360   1.495   0.784
  716SOL    HW2 2211   3.358   1.521   0.623
  717SOL     OW 2212   2.997   0.703   0.717
  717SOL    HW1 2213   3.054   0.781   0.692
  717SOL    HW2 2214   2.937   0.729   0.793
  718SOL     OW 2215   2.630   1.144   1.023
  718SOL    HW1 2216   2.552   1.161   1.083
  718SOL    HW2 2217   2.664   1.231   0.987
  719SOL     OW 2218   2.712   0.798   1.823
  719SOL    HW1 2219   2.708   0.874   1.888
  719SOL    HW2 2220   2.734   0.834   1.732
  720SOL     OW 2221   2.547   1.012   0.665
  720SOL    HW1 2222   2.616   0.996   0.735
  720SOL    HW2 2223   2.474   1.069   0.703
  721SOL     OW 2224   2.548   1.161   1.803
  721SOL    HW1 2225   2.608   1.240   1.817
  721SOL    HW2 2226   2.462   1.192   1.762
  722SOL     OW 2227   2.197   1.435   1.061
  722SOL    HW1 2228   2.119   1.404   1.008
  722SOL    HW2 2229   2.255   1.493   1.004
  723SOL     OW 2230   3.322   1.505   1.339
  723SOL    HW1 2231   3.346   1.599   1.365
  723SOL    HW2 2232   3.306   1.451   1.421
  724SOL     OW 2233   2.300   0.392   1.499
  724SOL    HW1 2234   2.382   0.336   1.508
  724SOL    HW2 2235   2.219   0.334   1.503
  725SOL     OW 2236   2.093   1.713   0.483
  725SOL    HW1 2237   2.127   1.790   0.537
  725SOL    HW2 2238   2.137   1.713   0.393
  726SOL     OW 2239   2.989   1.341   1.690
  726SOL    HW1 2240   3.036   1.341   1.778
  726SOL    HW2 2241   2.941   1.254   1.679
  727SOL     OW 2242   2.092   1.434   0.538
  727SOL    HW1 2243   2.066   1.530   0.538
  727SOL    HW2 2244   2.021   1.380   0.583
  728SOL     OW 2245   2.102   1.091   0.886
  728SOL    HW1 2246   2.116   1.007   0.938
  728SOL    HW2 2247   2.047   1.155   0.941
  729SOL     OW 2248   2.482   1.786   1.439
  729SOL    HW1 2249   2.390   1.769   1.474
  729SOL    HW2 2250   2.510   1.878   1.465
  730SOL     OW 2251   2.468   0.964   0.123
  730SOL    HW1 2252   2.475   1.048   0.069
  730SOL    HW2 2253   2.514   0.977   0.211
  731SOL     OW 2254   3.456   0.114   1.480
  731SOL    HW1 2255   3.438   0.181   1.408
  731SOL    HW2 2256   3.453   0.160   1.569
  732SOL     OW 2257   1.984   0.643   0.563
  732SOL    HW1 2258   1.939   0.555   0.580
  732SOL    HW2 2259   1.983   0.697   0.647
  733SOL     OW 2260   1.889   1.596   0.117
  733SOL    HW1 2261   1.870   1.500   0.138
  733SOL    HW2 2262   1.856   1.654   0.192
  734SOL     OW 2263   3.551   0.922   0.612
  734SOL    HW1 2264   3.646   0.893   0.620
  734SOL    HW2 2265   3.543   0.987   0.537
  735SOL     OW 2266   1.975   0.737   1.597
  735SOL    HW1 2267   2.063   0.724   1.642
  735SOL    HW2 2268   1.962   0.834   1.575
  736SOL     OW 2269   2.475   1.365   0.726
  736SOL    HW1 2270   2.426   1.278   0.735
  736SOL    HW2 2271   2.452   1.408   0.639
  737SOL     OW 2272   3.155   1.228   1.423
  737SOL    HW1 2273   3.192   1.155   1.365
  737SOL    HW2 2274   3.207   1.233   1.508
  738SOL     OW 2275   2.671   0.004   0.502
  738SOL    HW1 2276   2.711   0.095   0.493
  738SOL    HW2 2277   2.571   0.012   0.508
  739SOL     OW 2278   2.059   0.976   1.264
  739SOL    HW1 2279   2.148   0.931   1.250
  739SOL    HW2 2280   1.986   0.911   1.245
  740SOL     OW 2281   3.049   1.792   1.616
  740SOL    HW1 2282   3.073   1.852   1.540
  740SOL    HW2 2283   3.056   1.697   1.586
  741SOL     OW 2284   2.179   0.251   1.801
  741SOL    HW1 2285   2.250   0.322   1.807
  741SOL    HW2 2286   2.091   0.290   1.829
  742SOL     OW 2287   3.328   1.417   0.953
  742SOL    HW1 2288   3.269   1.423   1.033
  742SOL    HW2 2289   3.313   1.329   0.907
  743SOL     OW 2290   3.529   1.714   0.572
  743SOL    HW1 2291   3.488   1.691   0.484
  743SOL    HW2 2292   3.511   1.640   0.637
  744SOL     OW 2293   2.460   0.729   0.270
  744SOL    HW1 2294   2.484   0.798   0.202
  744SOL    HW2 2295   2.382   0.762   0.324
  745SOL     OW 2296   3.143   0.345   0.944
  745SOL    HW1 2297   3.057   0.295   0.931
  745SOL    HW2 2298   3.205   0.291   1.000
  746SOL     OW 2299   2.669   0.605   1.465
  746SOL    HW1 2300   2.622   0.602   1.554
  746SOL    HW2 2301   2.618   0.550   1.399
  747SOL     OW 2302   3.256   0.469   1.674
  747SOL    HW1 2303   3.236   0.512   1.762
  747SOL    HW2 2304   3.334   0.407   1.683
  748SOL     OW 2305   2.835   0.890   1.572
  748SOL    HW1 2306   2.881   0.806   1.543
  748SOL    HW2 2307   2.779   0.924   1.497
  749SOL     OW 2308   2.853   0.410   1.242
  749SOL    HW1 2309   2.776   0.444   1.296
  749SOL    HW2 2310   2.819   0.359   1.163
  750SOL     OW 2311   2.903   0.701   0.429
  750SOL    HW1 2312   2.929   0.697   0.525
  750SOL    HW2 2313   2.818   0.650   0.415
  751SOL     OW 2314   1.938   0.811   0.789
  751SOL    HW1 2315   2.037   0.799   0.798
  751SOL    HW2 2316   1.914   0.906   0.810
  752SOL     OW 2317   2.727   0.348   0.195
  752SOL    HW1 2318   2.786   0.411   0.146
  752SOL    HW2 2319   2.746   0.254   0.166
  753SOL     OW 2320   3.224   1.144   0.545
  753SOL    HW1 2321   3.307   1.115   0.497
  753SOL    HW2 2322   3.175   1.211   0.489
  754SOL     OW 2323   2.412   0.196   0.885
  754SOL    HW1 2324   2.407   0.191   0.985
  754SOL    HW2 2325   2.414   0.292   0.856
  755SOL     OW 2326   2.870   1.456   0.477
  755SOL    HW1 2327   2.824   1.528   0.425
  755SOL    HW2 2328   2.866   1.476   0.575
  756SOL     OW 2329   2.213   1.801   0.853
  756SOL    HW1 2330   2.263   1.715   0.859
  756SOL    HW2 2331   2.278   1.878   0.850
  757SOL     OW 2332   3.089   1.550   1.506
  757SOL    HW1 2333   3.095   1.473   1.570
  757SOL    HW2 2334   3.037   1.524   1.426
  758SOL     OW 2335   2.183   0.943   0.242
  758SOL    HW1 2336   2.265   0.982   0.200
  758SOL    HW2 2337   2.156   0.861   0.193
  759SOL     OW 2338   2.973   1.776   0.237
  759SOL    HW1 2339   2.913   1.714   0.287
  759SOL    HW2 2340   3.004   1.732   0.152
  760SOL     OW 2341   2.064   0.285   1.498
  760SOL    HW1 2342   1.984   0.345   1.485
  760SOL    HW2 2343   2.054   0.236   1.584
  761SOL     OW 2344   2.326   1.743   0.323
  761SOL    HW1 2345   2.359   1.782   0.409
  761SOL    HW2 2346   2.402   1.736   0.258
  762SOL     OW 2347   3.262   0.107   0.426
  762SOL    HW1 2348   3.238   0.070   0.336
  762SOL    HW2 2349   3.361   0.123   0.430
  763SOL     OW 2350   2.111   1.785   1.241
  763SOL    HW1 2351   2.168   1.720   1.291
  763SOL    HW2 2352   2.095   1.752   1.148
  764SOL     OW 2353   2.802   1.698   0.904
  764SOL    HW1 2354   2.882   1.641   0.925
  764SOL    HW2 2355   2.753   1.658   0.827
  765SOL     OW 2356   2.244   0.700   0.480
  765SOL    HW1 2357   2.289   0.610   0.477
  765SOL    HW2 2358   2.150   0.689   0.513
  766SOL     OW 2359   2.476   0.122   0.117
  766SOL    HW1 2360   2.574   0.100   0.124
  766SOL    HW2 2361   2.445   0.105   0.024
  767SOL     OW 2362   2.643   0.264   1.749
  767SOL    HW1 2363   2.710   0.203   1.792
  767SOL    HW2 2364   2.570   0.283   1.814
  768SOL     OW 2365   2.750   1.514   1.195
  768SOL    HW1 2366   2.727   1.489   1.101
  768SOL    HW2 2367   2.811   1.445   1.234
  769SOL     OW 2368   3.213   0.590   1.433
  769SOL    HW1 2369   3.241   0.547   1.518
  769SOL    HW2 2370   3.238   0.686   1.434
  770SOL     OW 2371   2.665   1.402   0.924
  770SOL    HW1 2372   2.755   1.416   0.882
  770SOL    HW2 2373   2.594   1.404   0.853
  771SOL     OW 2374   2.784   0.503   0.899
  771SOL    HW1 2375   2.759   0.494   0.803
  771SOL    HW2 2376   2.832   0.421   0.930
  772SOL     OW 2377   2.401   0.064   0.512
  772SOL    HW1 2378   2.320   0.065   0.570
  772SOL    HW2 2379   2.404   0.147   0.457
  773SOL     OW 2380   3.296   1.188   0.041
  773SOL    HW1 2381   3.328   1.112   0.098
  773SOL    HW2 2382   3.204   1.215   0.071
  774SOL     OW 2383   2.159   0.035   0.171
  774SOL    HW1 2384   2.208   0.119   0.150
  774SOL    HW2 2385   2.221  -0.030   0.216
  775SOL     OW 2386   2.797   0.236   0.480
  775SOL    HW1 2387   2.749   0.277   0.402
  775SOL    HW2 2388   2.896   0.234   0.461
  776SOL     OW 2389   2.938   0.683   1.464
  776SOL    HW1 2390   2.858   0.622   1.467
  776SOL    HW2 2391   3.019   0.630   1.440
  777SOL     OW 2392   3.089   1.570   0.793
  777SOL    HW1 2393   3.110   1.644   0.728
  777SOL    HW2 2394   3.157   1.570   0.866
  778SOL     OW 2395   2.321   1.152   0.741
  778SOL    HW1 2396   2.250   1.125   0.806
  778SOL    HW2 2397   2.295   1.124   0.648
  779SOL     OW 2398   3.133   1.797   0.591
  779SOL    HW1 2399   3.177   1.861   0.527
  779SOL    HW2 2400   3.083   1.849   0.661
  780SOL     OW 2401   2.894   0.549   0.016
  780SOL    HW1 2402   2.853   0.631  -0.023
  780SOL    HW2 2403   2.958   0.575   0.089
  781SOL     OW 2404   1.940   0.556   1.386
  781SOL    HW1 2405   2.032   0.555   1.345
  781SOL    HW2 2406   1.934   0.630   1.453
  782SOL     OW 2407   2.423   0.222   1.147
  782SOL    HW1 2408   2.461   0.138   1.184
  782SOL    HW2 2409   2.335   0.241   1.191
  783SOL     OW 2410   2.728   0.454   0.642
  783SOL    HW1 2411   2.696   0.526   0.580
  783SOL    HW2 2412   2.752   0.373   0.589
  784SOL     OW 2413   2.879   0.039   0.753
  784SOL    HW1 2414   2.807   0.044   0.684
  784SOL    HW2 2415   2.855  -0.030   0.822
  785SOL     OW 2416   3.291   1.173   0.867
  785SOL    HW1 2417   3.236   1.089   0.860
  785SOL    HW2 2418   3.317   1.202   0.775
  786SOL     OW 2419   2.350   1.385   0.174
  786SOL    HW1 2420   2.263   1.370   0.221
  786SOL    HW2 2421   2.333   1.411   0.079
  787SOL     OW 2422   3.252   0.575   0.078
  787SOL    HW1 2423   3.198   0.554   0.159
  787SOL    HW2 2424   3.343   0.534   0.087
  788SOL     OW 2425   2.389   0.256   0.328
  788SOL    HW1 2426   2.416   0.197   0.253
  788SOL    HW2 2427   2.389   0.351   0.297
  789SOL     OW 2428   2.926   1.347   1.340
  789SOL    HW1 2429   2.846   1.324   1.395
  789SOL    HW2 2430   3.009   1.321   1.389
  790SOL     OW 2431   3.454   1.629   1.625
  790SOL    HW1 2432   3.481   1.663   1.535
  790SOL    HW2 2433   3.533   1.591   1.671
  791SOL     OW 2434   2.973   1.195   1.100
  791SOL    HW1 2435   2.933   1.239   1.181
  791SOL    HW2 2436   2.932   1.232   1.017
  792SOL     OW 2437   2.777   0.089   1.402
  792SOL    HW1 2438   2.802   0.069   1.307
  792SOL    HW2 2439   2.849   0.145   1.444
  793SOL     OW 2440   2.842   1.116   1.719
  793SOL    HW1 2441   2.743   1.122   1.729
  793SOL    HW2 2442   2.865   1.036   1.663
  794SOL     OW 2443   2.567   1.050   0.368
  794SOL    HW1 2444   2.553   1.057   0.467
  794SOL    HW2 2445   2.651   0.999   0.350
  795SOL     OW 2446   2.272   0.813   1.251
  795SOL    HW1 2447   2.358   0.825   1.301
  795SOL    HW2 2448   2.230   0.726   1.278
  796SOL     OW 2449   3.136   0.386   1.262
  796SOL    HW1 2450   3.157   0.460   1.326
  796SOL    HW2 2451   3.047   0.403   1.219
  797SOL     OW 2452   1.926   1.564   1.331
  797SOL    HW1 2453   1.880   1.646   1.297
  797SOL    HW2 2454   2.024   1.583   1.340
  798SOL     OW 2455   2.229   1.100   0.501
  798SOL    HW1 2456   2.222   1.183   0.445
  798SOL    HW2 2457   2.233   1.020   0.441
  799SOL     OW 2458   2.428   0.537   0.865
  799SOL    HW1 2459   2.440   0.603   0.791
  799SOL    HW2 2460   2.474   0.571   0.948
  800SOL     OW 2461   3.114   1.348   0.388
  800SOL    HW1 2462   3.164   1.425   0.428
  800SOL    HW2 2463   3.019   1.350   0.420
  801SOL     OW 2464   3.134   1.445   1.142
  801SOL    HW1 2465   3.181   1.458   1.229
  801SOL    HW2 2466   3.068   1.371   1.151
  802SOL     OW 2467   2.216   1.510   1.329
  802SOL    HW1 2468   2.195   1.466   1.242
  802SOL    HW2 2469   2.313   1.536   1.332
  803SOL     OW 2470   2.264   0.751   1.598
  803SOL    HW1 2471   2.332   0.806   1.551
  803SOL    HW2 2472   2.304   0.663   1.625
  804SOL     OW 2473   2.875   0.105   1.770
  804SOL    HW1 2474   2.881   0.190   1.718
  804SOL    HW2 2475   2.907   0.029   1.713
  805SOL     OW 2476   2.366   0.050   1.740
  805SOL    HW1 2477   2.324  -0.007   1.670
  805SOL    HW2 2478   2.300   0.119   1.772
  806SOL     OW 2479   2.435   0.870   1.029
  806SOL    HW1 2480   2.479   0.959   1.020
  806SOL    HW2 2481   2.372   0.870   1.106
  807SOL     OW 2482   3.222   0.862   1.045
  807SOL    HW1 2483   3.147   0.862   0.979
  807SOL    HW2 2484   3.259   0.770   1.054
  808SOL     OW 2485   3.071   0.525   0.275
  808SOL    HW1 2486   3.084   0.441   0.329
  808SOL    HW2 2487   3.042   0.599   0.335
  809SOL     OW 2488   2.169   0.213   1.231
  809SOL    HW1 2489   2.146   0.250   1.321
  809SOL    HW2 2490   2.139   0.118   1.225
  810SOL     OW 2491   1.899   1.310   1.282
  810SOL    HW1 2492   1.952   1.261   1.350
  810SOL    HW2 2493   1.921   1.408   1.287
  811SOL     OW 2494   2.594   0.634   1.064
  811SOL    HW1 2495   2.653   0.608   0.988
  811SOL    HW2 2496   2.566   0.730   1.053
  812SOL     OW 2497   2.169   0.063   0.618
  812SOL    HW1 2498   2.158   0.157   0.651
  812SOL    HW2 2499   2.164   0.000   0.695
  813SOL     OW 2500   3.484   0.367   0.374
  813SOL    HW1 2501   3.486   0.291   0.438
  813SOL    HW2 2502   3.436   0.444   0.414
  814SOL     OW 2503   2.885   0.766   0.966
  814SOL    HW1 2504   2.900   0.787   1.062
  814SOL    HW2 2505   2.855   0.671   0.957
  815SOL     OW 2506   2.842   1.573   1.700
  815SOL    HW1 2507   2.822   1.617   1.612
  815SOL    HW2 2508   2.881   1.482   1.684
  816SOL     OW 2509   2.212   0.898   1.804
  816SOL    HW1 2510   2.288   0.942   1.852
  816SOL    HW2 2511   2.247   0.851   1.722
  817SOL     OW 2512   3.165   0.838   0.042
  817SOL    HW1 2513   3.199   0.745   0.057
  817SOL    HW2 2514   3.183   0.865  -0.053
  818SOL     OW 2515   2.930   1.333   0.849
  818SOL    HW1 2516   2.937   1.249   0.794
  818SOL    HW2 2517   2.992   1.402   0.813
  819SOL     OW 2518   2.181   0.810   0.949
  819SOL    HW1 2519   2.274   0.846   0.954
  819SOL    HW2 2520   2.175   0.725   1.001
  820SOL     OW 2521   2.201   0.509   1.006
  820SOL    HW1 2522   2.149   0.426   0.989
  820SOL    HW2 2523   2.278   0.514   0.942
  821SOL     OW 2524   3.000   0.380   1.678
  821SOL    HW1 2525   2.955   0.443   1.742
  821SOL    HW2 2526   3.093   0.411   1.661
  822SOL     OW 2527   3.022   0.207   1.477
  822SOL    HW1 2528   3.022   0.271   1.554
  822SOL    HW2 2529   3.050   0.255   1.394
  823SOL     OW 2530   1.870   1.326   0.200
  823SOL    HW1 2531   1.777   1.347   0.169
  823SOL    HW2 2532   1.880   1.227   0.213
  824SOL     OW 2533   1.950   1.801   0.927
  824SOL    HW1 2534   1.908   1.715   0.900
  824SOL    HW2 2535   2.044   1.804   0.893
  825SOL     OW 2536   2.366   1.568   0.910
  825SOL    HW1 2537   2.432   1.642   0.919
  825SOL    HW2 2538   2.410   1.489   0.868
  826SOL     OW 2539   2.864   0.796   1.238
  826SOL    HW1 2540   2.905   0.764   1.324
  826SOL    HW2 2541   2.768   0.769   1.235
  827SOL     OW 2542   1.902   0.544   1.114
  827SOL    HW1 2543   1.987   0.511   1.073
  827SOL    HW2 2544   1.915   0.559   1.212
  828SOL     OW 2545   2.051   0.520   1.722
  828SOL    HW1 2546   2.110   0.480   1.652
  828SOL    HW2 2547   1.993   0.591   1.681
  829SOL     OW 2548   3.231   0.950   1.660
  829SOL    HW1 2549   3.270   1.039   1.680
  829SOL    HW2 2550   3.241   0.930   1.563
  830SOL     OW 2551   2.677   0.572   0.325
  830SOL    HW1 2552   2.684   0.483   0.279
  830SOL    HW2 2553   2.583   0.606   0.317
  831SOL     OW 2554   2.533   0.464   1.269
  831SOL    HW1 2555   2.499   0.375   1.239
  831SOL    HW2 2556   2.559   0.518   1.189
  832SOL     OW 2557   2.792   1.678   1.465
  832SOL    HW1 2558   2.768   1.660   1.370
  832SOL    HW2 2559   2.822   1.772   1.475
  833SOL     OW 2560   2.335   0.500   0.191
  833SOL    HW1 2561   2.396   0.580   0.195
  833SOL    HW2 2562   2.240   0.531   0.198
  834SOL     OW 2563   3.209   1.059   1.234
  834SOL    HW1 2564   3.233   0.996   1.160
  834SOL    HW2 2565   3.119   1.099   1.216
  835SOL     OW 2566   3.164   0.855   0.309
  835SOL    HW1 2567   3.078   0.824   0.351
  835SOL    HW2 2568   3.160   0.841   0.210
  836SOL     OW 2569   3.114   1.731   1.128
  836SOL    HW1 2570   3.198   1.736   1.074
  836SOL    HW2 2571   3.091   1.635   1.146
  837SOL     OW 2572   1.945   1.258   1.022
  837SOL    HW1 2573   1.940   1.257   1.122
  837SOL    HW2 2574   1.862   1.217   0.984
  838SOL     OW 2575   2.550   1.662   1.716
  838SOL    HW1 2576   2.494   1.743   1.725
  838SOL    HW2 2577   2.602   1.666   1.630
  839SOL     OW 2578   2.765   0.086   0.133
  839SOL    HW1 2579   2.816   0.087   0.047
  839SOL    HW2 2580   2.821   0.044   0.204
  840SOL     OW 2581   3.588   0.135   0.523
  840SOL    HW1 2582   3.661   0.118   0.456
  840SOL    HW2 2583   3.557   0.048   0.561
  841SOL     OW 2584   3.250   1.573   0.477
  841SOL    HW1 2585   3.317   1.585   0.403
  841SOL    HW2 2586   3.210   1.662   0.500
  842SOL     OW 2587   3.142   0.927   0.672
  842SOL    HW1 2588   3.202   0.846   0.674
  842SOL    HW2 2589   3.182   0.996   0.612
  843SOL     OW 2590   2.692   1.273   1.422
  843SOL    HW1 2591   2.687   1.306   1.517
  843SOL    HW2 2592   2.606   1.292   1.376
  844SOL     OW 2593   2.534   1.616   0.154
  844SOL    HW1 2594   2.543   1.626   0.055
  844SOL    HW2 2595   2.494   1.527   0.175
  845SOL     OW 2596   2.125   0.326   0.720
  845SOL    HW1 2597   2.046   0.377   0.686
  845SOL    HW2 2598   2.116   0.311   0.818
  846SOL     OW 2599   3.056   1.612   0.031
  846SOL    HW1 2600   3.062   1.519   0.068
  846SOL    HW2 2601   2.997   1.612  -0.049
  847SOL     OW 2602   2.684   1.002   1.372
  847SOL    HW1 2603   2.724   1.001   1.280
  847SOL    HW2 2604   2.694   1.094   1.412
  848SOL     OW 2605   2.778   0.910   0.291
  848SOL    HW1 2606   2.841   0.948   0.223
  848SOL    HW2 2607   2.818   0.827   0.330
  849SOL     OW 2608   2.901   1.098   0.696
  849SOL    HW1 2609   2.831   1.051   0.750
  849SOL    HW2 2610   2.960   1.030   0.653
  850SOL     OW 2611   2.876   0.236   0.971
  850SOL    HW1 2612   2.868   0.200   0.878
  850SOL    HW2 2613   2.874   0.160   1.036
  851SOL     OW 2614   2.452   1.487   0.491
  851SOL    HW1 2615   2.494   1.429   0.421
  851SOL    HW2 2616   2.408   1.566   0.447
  852SOL     OW 2617   2.117   1.348   0.290
  852SOL    HW1 2618   2.021   1.349   0.263
  852SOL    HW2 2619   2.129   1.401   0.374
  853SOL     OW 2620   1.967   1.013   1.726
  853SOL    HW1 2621   1.890   0.980   1.780
  853SOL    HW2 2622   2.052   0.983   1.768
  854SOL     OW 2623   2.534   0.203   1.489
  854SOL    HW1 2624   2.624   0.187   1.449
  854SOL    HW2 2625   2.542   0.208   1.588
  855SOL     OW 2626   3.302   0.856   1.398
  855SOL    HW1 2627   3.245   0.908   1.335
  855SOL    HW2 2628   3.398   0.868   1.374
  856SOL     OW 2629   1.934   0.166   0.318
  856SOL    HW1 2630   1.917   0.249   0.264
  856SOL    HW2 2631   2.024   0.129   0.296
  857SOL     OW 2632   3.045   1.335   0.119
  857SOL    HW1 2633   2.946   1.324   0.121
  857SOL    HW2 2634   3.079   1.350   0.212
  858SOL     OW 2635   2.475   0.842   1.431
  858SOL    HW1 2636   2.531   0.923   1.414
  858SOL    HW2 2637   2.534   0.762   1.434
  859SOL     OW 2638   2.578   0.565   1.708
  859SOL    HW1 2639   2.597   0.630   1.782
  859SOL    HW2 2640   2.638   0.485   1.717
  860SOL     OW 2641   3.312   1.220   1.633
  860SOL    HW1 2642   3.303   1.210   1.732
  860SOL    HW2 2643   3.408   1.213   1.607
  861SOL     OW 2644   3.087   0.325   0.449
  861SOL    HW1 2645   3.152   0.251   0.438
  861SOL    HW2 2646   3.107   0.375   0.533
  862SOL     OW 2647   2.456   0.745   0.652
  862SOL    HW1 2648   2.506   0.830   0.633
  862SOL    HW2 2649   2.368   0.747   0.604
  863SOL     OW 2650   2.721   1.374   0.016
  863SOL    HW1 2651   2.675   1.389   0.104
  863SOL    HW2 2652   2.765   1.459  -0.014
  864SOL     OW 2653   2.523   1.790   0.953
  864SOL    HW1 2654   2.477   1.878   0.940
  864SOL    HW2 2655   2.622   1.802   0.946
  865SOL     OW 2656   2.721   0.956   0.861
  865SOL    HW1 2657   2.775   0.887   0.909
  865SOL    HW2 2658   2.689   1.025   0.927
  866SOL     OW 2659   2.945   0.984   0.087
  866SOL    HW1 2660   2.922   1.037   0.005
  866SOL    HW2 2661   3.026   0.928   0.068
  867SOL     OW 2662   1.941   1.240   0.653
  867SOL    HW1 2663   1.940   1.193   0.741
  867SOL    HW2 2664   2.023   1.212   0.602
  868SOL     OW 2665   2.534   1.391   1.624
  868SOL    HW1 2666   2.456   1.341   1.662
  868SOL    HW2 2667   2.531   1.486   1.655
  869SOL     OW 2668   2.290   0.424   0.520
  869SOL    HW1 2669   2.320   0.352   0.458
  869SOL    HW2 2670   2.251   0.384   0.603
  870SOL     OW 2671   2.179   0.547   1.280
  870SOL    HW1 2672   2.217   0.488   1.352
  870SOL    HW2 2673   2.219   0.521   1.192
  871SOL     OW 2674   2.674   1.586   0.687
  871SOL    HW1 2675   2.706   1.596   0.593
  871SOL    HW2 2676   2.595   1.524   0.689
  872SOL     OW 2677   3.286   0.214   1.112
  872SOL    HW1 2678   3.338   0.149   1.167
  872SOL    HW2 2679   3.237   0.277   1.173
  873SOL     OW 2680   2.863   0.034   1.154
  873SOL    HW1 2681   2.800  -0.038   1.123
  873SOL    HW2 2682   2.956  -0.002   1.154
  874SOL     OW 2683   2.632   1.330   0.301
  874SOL    HW1 2684   2.586   1.243   0.318
  874SOL    HW2 2685   2.723   1.327   0.342
  875SOL     OW 2686   2.480   1.567   1.284
  875SOL    HW1 2687   2.475   1.649   1.341
  875SOL    HW2 2688   2.569   1.564   1.239
  876SOL     OW 2689   3.214   0.052   0.168
  876SOL    HW1 2690   3.249   0.011   0.084
  876SOL    HW2 2691   3.124   0.014   0.188
  877SOL     OW 2692   3.162   0.453   0.691
  877SOL    HW1 2693   3.103   0.533   0.695
  877SOL    HW2 2694   3.177   0.418   0.784
  878SOL     OW 2695   3.455   0.221   0.882
  878SOL    HW1 2696   3.371   0.220   0.936
  878SOL    HW2 2697   3.457   0.304   0.826
  879SOL     OW 2698   1.901   1.077   0.300
  879SOL    HW1 2699   2.000   1.066   0.291
  879SOL    HW2 2700   1.861   0.991   0.332
  880SOL     OW 2701   2.737   1.646   0.337
  880SOL    HW1 2702   2.660   1.611   0.283
  880SOL    HW2 2703   2.705   1.717   0.399
  881SOL     OW 2704   2.092   0.628   1.975
  881SOL    HW1 2705   1.999   0.626   2.012
  881SOL    HW2 2706   2.093   0.589   1.883
  882SOL     OW 2707   2.087   0.275   2.858
  882SOL    HW1 2708   2.122   0.258   2.950
  882SOL    HW2 2709   1.999   0.230   2.846
  883SOL     OW 2710   1.881   0.368   2.509
  883SOL    HW1 2711   1.799   0.411   2.548
  883SOL    HW2 2712   1.853   0.295   2.446
  884SOL     OW 2713   2.431   1.275   3.027
  884SOL    HW1 2714   2.338   1.268   2.990
  884SOL    HW2 2715   2.442   1.364   3.071
  885SOL     OW 2716   3.417   1.511   2.565
  885SOL    HW1 2717   3.360   1.495   2.646
  885SOL    HW2 2718   3.358   1.521   2.485
  886SOL     OW 2719   2.997   0.703   2.579
  886SOL    HW1 2720   3.054   0.781   2.554
  886SOL    HW2 2721   2.937   0.729   2.655
  887SOL     OW 2722   2.630   1.144   2.885
  887SOL    HW1 2723   2.552   1.161   2.945
  887SOL    HW2 2724   2.664   1.231   2.849
  888SOL     OW 2725   2.547   1.012   2.527
  888SOL    HW1 2726   2.616   0.996   2.597
  888SOL    HW2 2727   2.474   1.069   2.565
  889SOL     OW 2728   2.197   1.435   2.923
  889SOL    HW1 2729   2.119   1.404   2.870
  889SOL    HW2 2730   2.255   1.493   2.866
  890SOL     OW 2731   3.322   1.505   3.201
  890SOL    HW1 2732   3.346   1.599   3.227
  890SOL    HW2 2733   3.306   1.451   3.283
  891SOL     OW 2734   2.300   0.392   3.361
  891SOL    HW1 2735   2.382   0.336   3.370
  891SOL    HW2 2736   2.219   0.334   3.365
  892SOL     OW 2737   2.093   1.713   2.345
  892SOL    HW1 2738   2.127   1.790   2.399
  892SOL    HW2 2739   2.137   1.713   2.255
  893SOL     OW 2740   2.092   1.434   2.400
  893SOL    HW1 2741   2.066   1.530   2.400
  893SOL    HW2 2742   2.021   1.380   2.445
  894SOL     OW 2743   2.102   1.091   2.748
  894SOL    HW1 2744   2.116   1.007   2.800
  894SOL    HW2 2745   2.047   1.155   2.803
  895SOL     OW 2746   2.482   1.786   3.301
  895SOL    HW1 2747   2.390   1.769   3.336
  895SOL    HW2 2748   2.510   1.878   3.327
  896SOL     OW 2749   2.468   0.964   1.985
  896SOL    HW1 2750   2.475   1.048   1.931
  896SOL    HW2 2751   2.514   0.977   2.073
  897SOL     OW 2752   3.456   0.114   3.342
  897SOL    HW1 2753   3.438   0.181   3.270
  897SOL    HW2 2754   3.453   0.160   3.431
  898SOL     OW 2755   1.984   0.643   2.425
  898SOL    HW1 2756   1.939   0.555   2.442
  898SOL    HW2 2757   1.983   0.697   2.509
  899SOL     OW 2758   1.889   1.596   1.979
  899SOL    HW1 2759   1.870   1.500   2.000
  899SOL    HW2 2760   1.856   1.654   2.054
  900SOL     OW 2761   3.551   0.922   2.474
  900SOL    HW1 2762   3.646   0.893   2.482
  900SOL    HW2 2763   3.543   0.987   2.399
  901SOL     OW 2764   2.475   1.365   2.588
  901SOL    HW1 2765   2.426   1.278   2.597
  901SOL    HW2 2766   2.452   1.408   2.501
  902SOL     OW 2767   2.671   0.004   2.364
  902SOL    HW1 2768   2.711   0.095   2.355
  902SOL    HW2 2769   2.571   0.012   2.370
  903SOL     OW 2770   2.059   0.976   3.126
  903SOL    HW1 2771   2.148   0.931   3.112
  903SOL    HW2 2772   1.986   0.911   3.107
  904SOL     OW 2773   3.328   1.417   2.815
  904SOL    HW1 2774   3.269   1.423   2.895
  904SOL    HW2 2775   3.313   1.329   2.769
  905SOL     OW 2776   3.529   1.714   2.434
  905SOL    HW1 2777   3.488   1.691   2.346
  905SOL    HW2 2778   3.511   1.640   2.499
  906SOL     OW 2779   2.460   0.729   2.132
  906SOL    HW1 2780   2.484   0.798   2.064
  906SOL    HW2 2781   2.382   0.762   2.186
  907SOL     OW 2782   3.143   0.345   2.806
  907SOL    HW1 2783   3.057   0.295   2.793
  907SOL    HW2 2784   3.205   0.291   2.862
  908SOL     OW 2785   2.669   0.605   3.327
  908SOL    HW1 2786   2.622   0.602   3.416
  908SOL    HW2 2787   2.618   0.550   3.261
  909SOL     OW 2788   2.835   0.890   3.434
  909SOL    HW1 2789   2.881   0.806   3.405
  909SOL    HW2 2790   2.779   0.924   3.359
  910SOL     OW 2791   2.853   0.410   3.104
  910SOL    HW1 2792   2.776   0.444   3.158
  910SOL    HW2 2793   2.819   0.359   3.025
  911SOL     OW 2794   2.903   0.701   2.291
  911SOL    HW1 2795   2.929   0.697   2.387
  911SOL    HW2 2796   2.818   0.650   2.277
  912SOL     OW 2797   1.938   0.811   2.651
  912SOL    HW1 2798   2.037   0.799   2.660
  912SOL    HW2 2799   1.914   0.906   2.672
  913SOL     OW 2800   1.992   1.821   3.433
  913SOL    HW1 2801   1.982   1.806   3.532
  913SOL    HW2 2802   1.906   1.857   3.397
  914SOL     OW 2803   2.727   0.348   2.057
  914SOL    HW1 2804   2.786   0.411   2.008
  914SOL    HW2 2805   2.746   0.254   2.028
  915SOL     OW 2806   3.224   1.144   2.407
  915SOL    HW1 2807   3.307   1.115   2.359
  915SOL    HW2 2808   3.175   1.211   2.351
  916SOL     OW 2809   2.412   0.196   2.747
  916SOL    HW1 2810   2.407   0.191   2.847
  916SOL    HW2 2811   2.414   0.292   2.718
  917SOL     OW 2812   2.870   1.456   2.339
  917SOL    HW1 2813   2.824   1.528   2.287
  917SOL    HW2 2814   2.866   1.476   2.437
  918SOL     OW 2815   2.213   1.801   2.715
  918SOL    HW1 2816   2.263   1.715   2.721
  918SOL    HW2 2817   2.278   1.878   2.712
  919SOL     OW 2818   2.183   0.943   2.104
  919SOL    HW1 2819   2.265   0.982   2.062
  919SOL    HW2 2820   2.156   0.861   2.055
  920SOL     OW 2821   2.973   1.776   2.099
  920SOL    HW1 2822   2.913   1.714   2.149
  920SOL    HW2 2823   3.004   1.732   2.014
  921SOL     OW 2824   2.064   0.285   3.360
  921SOL    HW1 2825   1.984   0.345   3.347
  921SOL    HW2 2826   2.054   0.236   3.446
  922SOL     OW 2827   2.326   1.743   2.185
  922SOL    HW1 2828   2.359   1.782   2.271
  922SOL    HW2 2829   2.402   1.736   2.120
  923SOL     OW 2830   3.262   0.107   2.288
  923SOL    HW1 2831   3.238   0.070   2.198
  923SOL    HW2 2832   3.361   0.123   2.292
  924SOL     OW 2833   2.111   1.785   3.103
  924SOL    HW1 2834   2.168   1.720   3.153
  924SOL    HW2 2835   2.095   1.752   3.010
  925SOL     OW 2836   2.802   1.698   2.766
  925SOL    HW1 2837   2.882   1.641   2.787
  925SOL    HW2 2838   2.753   1.658   2.689
  926SOL     OW 2839   2.244   0.700   2.342
  926SOL    HW1 2840   2.289   0.610   2.339
  926SOL    HW2 2841   2.150   0.689   2.375
  927SOL     OW 2842   2.476   0.122   1.979
  927SOL    HW1 2843   2.574   0.100   1.986
  927SOL    HW2 2844   2.445   0.105   1.886
  928SOL     OW 2845   2.750   1.514   3.057
  928SOL    HW1 2846   2.727   1.489   2.963
  928SOL    HW2 2847   2.811   1.445   3.096
  929SOL     OW 2848   2.665   1.402   2.786
  929SOL    HW1 2849   2.755   1.416   2.744
  929SOL    HW2 2850   2.594   1.404   2.715
  930SOL     OW 2851   2.784   0.503   2.761
  930SOL    HW1 2852   2.759   0.494   2.665
  930SOL    HW2 2853   2.832   0.421   2.792
  931SOL     OW 2854   2.401   0.064   2.374
  931SOL    HW1 2855   2.320   0.065   2.432
  931SOL    HW2 2856   2.404   0.147   2.319
  932SOL     OW 2857   3.296   1.188   1.903
  932SOL    HW1 2858   3.328   1.112   1.960
  932SOL    HW2 2859   3.204   1.215   1.933
  933SOL     OW 2860   2.159   0.035   2.033
  933SOL    HW1 2861   2.208   0.119   2.012
  933SOL    HW2 2862   2.221  -0.030   2.078
  934SOL     OW 2863   2.797   0.236   2.342
  934SOL    HW1 2864   2.749   0.277   2.264
  934SOL    HW2 2865   2.896   0.234   2.323
  935SOL     OW 2866   3.089   1.570   2.655
  935SOL    HW1 2867   3.110   1.644   2.590
  935SOL    HW2 2868   3.157   1.570   2.728
  936SOL     OW 2869   2.321   1.152   2.603
  936SOL    HW1 2870   2.250   1.125   2.668
  936SOL    HW2 2871   2.295   1.124   2.510
  937SOL     OW 2872   3.133   1.797   2.453
  937SOL    HW1 2873   3.177   1.861   2.389
  937SOL    HW2 2874   3.083   1.849   2.523
  938SOL     OW 2875   2.894   0.549   1.878
  938SOL    HW1 2876   2.853   0.631   1.839
  938SOL    HW2 2877   2.958   0.575   1.951
  939SOL     OW 2878   1.940   0.556   3.248
  939SOL    HW1 2879   2.032   0.555   3.207
  939SOL    HW2 2880   1.934   0.630   3.315
  940SOL     OW 2881   2.423   0.222   3.009
  940SOL    HW1 2882   2.461   0.138   3.046
  940SOL    HW2 2883   2.335   0.241   3.053
  941SOL     OW 2884   2.728   0.454   2.504
  941SOL    HW1 2885   2.696   0.526   2.442
  941SOL    HW2 2886   2.752   0.373   2.451
  942SOL     OW 2887   2.879   0.039   2.615
  942SOL    HW1 2888   2.807   0.044   2.546
  942SOL    HW2 2889   2.855  -0.030   2.684
  943SOL     OW 2890   3.291   1.173   2.729
  943SOL    HW1 2891   3.236   1.089   2.722
  943SOL    HW2 2892   3.317   1.202   2.637
  944SOL     OW 2893   2.350   1.385   2.036
  944SOL    HW1 2894   2.263   1.370   2.083
  944SOL    HW2 2895   2.333   1.411   1.941
  945SOL     OW 2896   3.252   0.575   1.940
  945SOL    HW1 2897   3.198   0.554   2.021
  945SOL    HW2 2898   3.343   0.534   1.949
  946SOL     OW 2899   2.389   0.256   2.190
  946SOL    HW1 2900   2.416   0.197   2.115
  946SOL    HW2 2901   2.389   0.351   2.159
  947SOL     OW 2902   2.926   1.347   3.202
  947SOL    HW1 2903   2.846   1.324   3.257
  947SOL    HW2 2904   3.009   1.321   3.251
  948SOL     OW 2905   2.973   1.195   2.962
  948SOL    HW1 2906   2.933   1.239   3.043
  948SOL    HW2 2907   2.932   1.232   2.879
  949SOL     OW 2908   2.777   0.089   3.264
  949SOL    HW1 2909   2.802   0.069   3.169
  949SOL    HW2 2910   2.849   0.145   3.306
  950SOL     OW 2911   2.567   1.050   2.230
  950SOL    HW1 2912   2.553   1.057   2.329
  950SOL    HW2 2913   2.651   0.999   2.212
  951SOL     OW 2914   2.272   0.813   3.113
  951SOL    HW1 2915   2.358   0.825   3.163
  951SOL    HW2 2916   2.230   0.726   3.140
  952SOL     OW 2917   3.136   0.386   3.124
  952SOL    HW1 2918   3.157   0.460   3.188
  952SOL    HW2 2919   3.047   0.403   3.081
  953SOL     OW 2920   1.926   1.564   3.193
  953SOL    HW1 2921   1.880   1.646   3.159
  953SOL    HW2 2922   2.024   1.583   3.202
  954SOL     OW 2923   2.229   1.100   2.363
  954SOL    HW1 2924   2.222   1.183   2.307
  954SOL    HW2 2925   2.233   1.020   2.303
  955SOL     OW 2926   2.428   0.537   2.727
  955SOL    HW1 2927   2.440   0.603   2.653
  955SOL    HW2 2928   2.474   0.571   2.810
  956SOL     OW 2929   3.114   1.348   2.250
  956SOL    HW1 2930   3.164   1.425   2.290
  956SOL    HW2 2931   3.019   1.350   2.282
  957SOL     OW 2932   3.134   1.445   3.004
  957SOL    HW1 2933   3.181   1.458   3.091
  957SOL    HW2 2934   3.068   1.371   3.013
  958SOL     OW 2935   2.216   1.510   3.191
  958SOL    HW1 2936   2.195   1.466   3.104
  958SOL    HW2 2937   2.313   1.536   3.194
  959SOL     OW 2938   2.264   0.751   3.460
  959SOL    HW1 2939   2.332   0.806   3.413
  959SOL    HW2 2940   2.304   0.663   3.487
  960SOL     OW 2941   3.449   0.779   3.532
  960SOL    HW1 2942   3.357   0.817   3.527
  960SOL    HW2 2943   3.509   0.826   3.467
  961SOL     OW 2944   2.435   0.870   2.891
  961SOL    HW1 2945   2.479   0.959   2.882
  961SOL    HW2 2946   2.372   0.870   2.968
  962SOL     OW 2947   3.222   0.862   2.907
  962SOL    HW1 2948   3.147   0.862   2.841
  962SOL    HW2 2949   3.259   0.770   2.916
  963SOL     OW 2950   3.071   0.525   2.137
  963SOL    HW1 2951   3.084   0.441   2.191
  963SOL    HW2 2952   3.042   0.599   2.197
  964SOL     OW 2953   2.169   0.213   3.093
  964SOL    HW1 2954   2.146   0.250   3.183
  964SOL    HW2 2955   2.139   0.118   3.087
  965SOL     OW 2956   1.899   1.310   3.144
  965SOL    HW1 2957   1.952   1.261   3.212
  965SOL    HW2 2958   1.921   1.408   3.149
  966SOL     OW 2959   2.594   0.634   2.926
  966SOL    HW1 2960   2.653   0.608   2.850
  966SOL    HW2 2961   2.566   0.730   2.915
  967SOL     OW 2962   2.169   0.063   2.480
  967SOL    HW1 2963   2.158   0.157   2.513
  967SOL    HW2 2964   2.164   0.000   2.557
  968SOL     OW 2965   3.484   0.367   2.236
  968SOL    HW1 2966   3.486   0.291   2.300
  968SOL    HW2 2967   3.436   0.444   2.276
  969SOL     OW 2968   2.885   0.766   2.828
  969SOL    HW1 2969   2.900   0.787   2.924
  969SOL    HW2 2970   2.855   0.671   2.819
  970SOL     OW 2971   2.842   1.573   3.562
  970SOL    HW1 2972   2.822   1.617   3.474
  970SOL    HW2 2973   2.881   1.482   3.546
  971SOL     OW 2974   3.165   0.838   1.904
  971SOL    HW1 2975   3.199   0.745   1.919
  971SOL    HW2 2976   3.183   0.865   1.809
  972SOL     OW 2977   2.930   1.333   2.711
  972SOL    HW1 2978   2.937   1.249   2.656
  972SOL    HW2 2979   2.992   1.402   2.675
  973SOL     OW 2980   2.181   0.810   2.811
  973SOL    HW1 2981   2.274   0.846   2.816
  973SOL    HW2 2982   2.175   0.725   2.863
  974SOL     OW 2983   2.201   0.509   2.868
  974SOL    HW1 2984   2.149   0.426   2.851
  974SOL    HW2 2985   2.278   0.514   2.804
  975SOL     OW 2986   3.000   0.380   3.540
  975SOL    HW1 2987   2.955   0.443   3.604
  975SOL    HW2 2988   3.093   0.411   3.523
  976SOL     OW 2989   3.022   0.207   3.339
  976SOL    HW1 2990   3.022   0.271   3.416
  976SOL    HW2 2991   3.050   0.255   3.256
  977SOL     OW 2992   1.870   1.326   2.062
  977SOL    HW1 2993   1.777   1.347   2.031
  977SOL    HW2 2994   1.880   1.227   2.075
  978SOL     OW 2995   1.950   1.801   2.789
  978SOL    HW1 2996   1.908   1.715   2.762
  978SOL    HW2 2997   2.044   1.804   2.755
  979SOL     OW 2998   2.366   1.568   2.772
  979SOL    HW1 2999   2.432   1.642   2.781
  979SOL    HW2 3000   2.410   1.489   2.730
  980SOL     OW 3001   2.864   0.796   3.100
  980SOL    HW1 3002   2.905   0.764   3.186
  980SOL    HW2 3003   2.768   0.769   3.097
  981SOL     OW 3004   1.902   0.544   2.976
  981SOL    HW1 3005   1.987   0.511   2.935
  981SOL    HW2 3006   1.915   0.559   3.074
  982SOL     OW 3007   2.677   0.572   2.187
  982SOL    HW1 3008   2.684   0.483   2.141
  982SOL    HW2 3009   2.583   0.606   2.179
  983SOL     OW 3010   2.114   1.564   3.606
  983SOL    HW1 3011   2.084   1.621   3.682
  983SOL    HW2 3012   2.107   1.467   3.632
  984SOL     OW 3013   2.533   0.464   3.131
  984SOL    HW1 3014   2.499   0.375   3.101
  984SOL    HW2 3015   2.559   0.518   3.051
  985SOL     OW 3016   2.792   1.678   3.327
  985SOL    HW1 3017   2.768   1.660   3.232
  985SOL    HW2 3018   2.822   1.772   3.337
  986SOL     OW 3019   2.335   0.500   2.053
  986SOL    HW1 3020   2.396   0.580   2.057
  986SOL    HW2 3021   2.240   0.531   2.060
  987SOL     OW 3022   2.021   1.137   3.328
  987SOL    HW1 3023   2.043   1.076   3.404
  987SOL    HW2 3024   2.031   1.088   3.242
  988SOL     OW 3025   3.209   1.059   3.096
  988SOL    HW1 3026   3.233   0.996   3.022
  988SOL    HW2 3027   3.119   1.099   3.078
  989SOL     OW 3028   3.164   0.855   2.171
  989SOL    HW1 3029   3.078   0.824   2.213
  989SOL    HW2 3030   3.160   0.841   2.072
  990SOL     OW 3031   3.114   1.731   2.990
  990SOL    HW1 3032   3.198   1.736   2.936
  990SOL    HW2 3033   3.091   1.635   3.008
  991SOL     OW 3034   1.945   1.258   2.884
  991SOL    HW1 3035   1.940   1.257   2.984
  991SOL    HW2 3036   1.862   1.217   2.846
  992SOL     OW 3037   3.588   0.135   2.385
  992SOL    HW1 3038   3.661   0.118   2.318
  992SOL    HW2 3039   3.557   0.048   2.423
  993SOL     OW 3040   3.250   1.573   2.339
  993SOL    HW1 3041   3.317   1.585   2.265
  993SOL    HW2 3042   3.210   1.662   2.362
  994SOL     OW 3043   3.142   0.927   2.534
  994SOL    HW1 3044   3.202   0.846   2.536
  994SOL    HW2 3045   3.182   0.996   2.474
  995SOL     OW 3046   2.534   1.616   2.016
  995SOL    HW1 3047   2.543   1.626   1.917
  995SOL    HW2 3048   2.494   1.527   2.037
  996SOL     OW 3049   2.125   0.326   2.582
  996SOL    HW1 3050   2.046   0.377   2.548
  996SOL    HW2 3051   2.116   0.311   2.680
  997SOL     OW 3052   3.056   1.612   1.893
  997SOL    HW1 3053   3.062   1.519   1.930
  997SOL    HW2 3054   2.997   1.612   1.813
  998SOL     OW 3055   2.684   1.002   3.234
  998SOL    HW1 3056   2.724   1.001   3.142
  998SOL    HW2 3057   2.694   1.094   3.274
  999SOL     OW 3058   2.778   0.910   2.153
  999SOL    HW1 3059   2.841   0.948   2.085
  999SOL    HW2 3060   2.818   0.827   2.192
 1000SOL     OW 3061   2.234   1.288   3.352
 1000SOL    HW1 3062   2.221   1.381   3.318
 1000SOL    HW2 3063   2.150   1.236   3.339
 1001SOL     OW 3064   2.901   1.098   2.558
 1001SOL    HW1 3065   2.831   1.051   2.612
 1001SOL    HW2 3066   2.960   1.030   2.515
 1002SOL     OW 3067   2.876   0.236   2.833
 1002SOL    HW1 3068   2.868   0.200   2.740
 1002SOL    HW2 3069   2.874   0.160   2.898
 1003SOL     OW 3070   2.452   1.487   2.353
 1003SOL    HW1 3071   2.494   1.429   2.283
 1003SOL    HW2 3072   2.408   1.566   2.309
 1004SOL     OW 3073   2.117   1.348   2.152
 1004SOL    HW1 3074   2.021   1.349   2.125
 1004SOL    HW2 3075   2.129   1.401   2.236
 1005SOL     OW 3076   2.534   0.203   3.351
 1005SOL    HW1 3077   2.624   0.187   3.311
 1005SOL    HW2 3078   2.542   0.208   3.450
 1006SOL     OW 3079   1.937   0.345   1.895
 1006SOL    HW1 3080   1.845   0.317   1.866
 1006SOL    HW2 3081   1.968   0.422   1.839
 1007SOL     OW 3082   3.302   0.856   3.260
 1007SOL    HW1 3083   3.245   0.908   3.197
 1007SOL    HW2 3084   3.398   0.868   3.236
 1008SOL     OW 3085   1.934   0.166   2.180
 1008SOL    HW1 3086   1.917   0.249   2.126
 1008SOL    HW2 3087   2.024   0.129   2.158
 1009SOL     OW 3088   3.045   1.335   1.981
 1009SOL    HW1 3089   2.946   1.324   1.983
 1009SOL    HW2 3090   3.079   1.350   2.074
 1010SOL     OW 3091   2.475   0.842   3.293
 1010SOL    HW1 3092   2.531   0.923   3.276
 1010SOL    HW2 3093   2.534   0.762   3.296
 1011SOL     OW 3094   2.252   1.741   3.422
 1011SOL    HW1 3095   2.161   1.782   3.420
 1011SOL    HW2 3096   2.245   1.647   3.454
 1012SOL     OW 3097   3.087   0.325   2.311
 1012SOL    HW1 3098   3.152   0.251   2.300
 1012SOL    HW2 3099   3.107   0.375   2.395
 1013SOL     OW 3100   2.456   0.745   2.514
 1013SOL    HW1 3101   2.506   0.830   2.495
 1013SOL    HW2 3102   2.368   0.747   2.466
 1014SOL     OW 3103   2.721   1.374   1.878
 1014SOL    HW1 3104   2.675   1.389   1.966
 1014SOL    HW2 3105   2.765   1.459   1.848
 1015SOL     OW 3106   2.523   1.790   2.815
 1015SOL    HW1 3107   2.477   1.878   2.802
 1015SOL    HW2 3108   2.622   1.802   2.808
 1016SOL     OW 3109   2.721   0.956   2.723
 1016SOL    HW1 3110   2.775   0.887   2.771
 1016SOL    HW2 3111   2.689   1.025   2.789
 1017SOL     OW 3112   2.945   0.984   1.949
 1017SOL    HW1 3113   2.922   1.037   1.867
 1017SOL    HW2 3114   3.026   0.928   1.930
 1018SOL     OW 3115   1.941   1.240   2.515
 1018SOL    HW1 3116   1.940   1.193   2.603
 1018SOL    HW2 3117   2.023   1.212   2.464
 1019SOL     OW 3118   2.290   0.424   2.382
 1019SOL    HW1 3119   2.320   0.352   2.320
 1019SOL    HW2 3120   2.251   0.384   2.465
 1020SOL     OW 3121   2.179   0.547   3.142
 1020SOL    HW1 3122   2.217   0.488   3.214
 1020SOL    HW2 3123   2.219   0.521   3.054
 1021SOL     OW 3124   2.674   1.586   2.549
 1021SOL    HW1 3125   2.706   1.596   2.455
 1021SOL    HW2 3126   2.595   1.524   2.551
 1022SOL     OW 3127   3.286   0.214   2.974
 1022SOL    HW1 3128   3.338   0.149   3.029
 1022SOL    HW2 3129   3.237   0.277   3.035
 1023SOL     OW 3130   2.863   0.034   3.016
 1023SOL    HW1 3131   2.800  -0.038   2.985
 1023SOL    HW2 3132   2.956  -0.002   3.016
 1024SOL     OW 3133   2.632   1.330   2.163
 1024SOL    HW1 3134   2.586   1.243   2.180
 1024SOL    HW2 3135   2.723   1.327   2.204
 1025SOL     OW 3136   2.480   1.567   3.146
 1025SOL    HW1 3137   2.475   1.649   3.203
 1025SOL    HW2 3138   2.569   1.564   3.101
 1026SOL     OW 3139   3.214   0.052   2.030
 1026SOL    HW1 3140   3.249   0.011   1.946
 1026SOL    HW2 3141   3.124   0.014   2.050
 1027SOL     OW 3142   3.162   0.453   2.553
 1027SOL    HW1 3143   3.103   0.533   2.557
 1027SOL    HW2 3144   3.177   0.418   2.646
 1028SOL     OW 3145   3.455   0.221   2.744
 1028SOL    HW1 3146   3.371   0.220   2.798
 1028SOL    HW2 3147   3.457   0.304   2.688
 1029SOL     OW 3148   1.901   1.077   2.162
 1029SOL    HW1 3149   2.000   1.066   2.153
 1029SOL    HW2 3150   1.861   0.991   2.194
 1030SOL     OW 3151   2.737   1.646   2.199
 1030SOL    HW1 3152   2.660   1.611   2.145
 1030SOL    HW2 3153   2.705   1.717   2.261
 1031SOL     OW 3154   2.092   2.490   0.113
 1031SOL    HW1 3155   1.999   2.488   0.150
 1031SOL    HW2 3156   2.093   2.451   0.021
 1032SOL     OW 3157   2.087   2.137   0.996
 1032SOL    HW1 3158   2.122   2.120   1.088
 1032SOL    HW2 3159   1.999   2.092   0.984
 1033SOL     OW 3160   1.881   2.230   0.647
 1033SOL    HW1 3161   1.799   2.273   0.686
 1033SOL    HW2 3162   1.853   2.157   0.584
 1034SOL     OW 3163   2.431   3.137   1.165
 1034SOL    HW1 3164   2.338   3.130   1.128
 1034SOL    HW2 3165   2.442   3.226   1.209
 1035SOL     OW 3166   3.417   3.373   0.703
 1035SOL    HW1 3167   3.360   3.357   0.784
 1035SOL    HW2 3168   3.358   3.383   0.623
 1036SOL     OW 3169   2.997   2.565   0.717
 1036SOL    HW1 3170   3.054   2.643   0.692
 1036SOL    HW2 3171   2.937   2.591   0.793
 1037SOL     OW 3172   2.630   3.006   1.023
 1037SOL    HW1 3173   2.552   3.023   1.083
 1037SOL    HW2 3174   2.664   3.093   0.987
 1038SOL     OW 3175   2.712   2.660   1.823
 1038SOL    HW1 3176   2.708   2.736   1.888
 1038SOL    HW2 3177   2.734   2.696   1.732
 1039SOL     OW 3178   2.547   2.874   0.665
 1039SOL    HW1 3179   2.616   2.858   0.735
 1039SOL    HW2 3180   2.474   2.931   0.703
 1040SOL     OW 3181   2.548   3.023   1.803
 1040SOL    HW1 3182   2.608   3.102   1.817
 1040SOL    HW2 3183   2.462   3.054   1.762
 1041SOL     OW 3184   2.197   3.297   1.061
 1041SOL    HW1 3185   2.119   3.266   1.008
 1041SOL    HW2 3186   2.255   3.355   1.004
 1042SOL     OW 3187   3.322   3.367   1.339
 1042SOL    HW1 3188   3.346   3.461   1.365
 1042SOL    HW2 3189   3.306   3.313   1.421
 1043SOL     OW 3190   2.300   2.254   1.499
 1043SOL    HW1 3191   2.382   2.198   1.508
 1043SOL    HW2 3192   2.219   2.196   1.503
 1044SOL     OW 3193   2.989   3.203   1.690
 1044SOL    HW1 3194   3.036   3.203   1.778
 1044SOL    HW2 3195   2.941   3.116   1.679
 1045SOL     OW 3196   2.092   3.296   0.538
 1045SOL    HW1 3197   2.066   3.392   0.538
 1045SOL    HW2 3198   2.021   3.242   0.583
 1046SOL     OW 3199   2.102   2.953   0.886
 1046SOL    HW1 3200   2.116   2.869   0.938
 1046SOL    HW2 3201   2.047   3.017   0.941
 1047SOL     OW 3202   2.468   2.826   0.123
 1047SOL    HW1 3203   2.475   2.910   0.069
 1047SOL    HW2 3204   2.514   2.839   0.211
 1048SOL     OW 3205   1.984   2.505   0.563
 1048SOL    HW1 3206   1.939   2.417   0.580
 1048SOL    HW2 3207   1.983   2.559   0.647
 1049SOL     OW 3208   1.889   3.458   0.117
 1049SOL    HW1 3209   1.870   3.362   0.138
 1049SOL    HW2 3210   1.856   3.516   0.192
 1050SOL     OW 3211   3.551   2.784   0.612
 1050SOL    HW1 3212   3.646   2.755   0.620
 1050SOL    HW2 3213   3.543   2.849   0.537
 1051SOL     OW 3214   1.975   2.599   1.597
 1051SOL    HW1 3215   2.063   2.586   1.642
 1051SOL    HW2 3216   1.962   2.696   1.575
 1052SOL     OW 3217   2.475   3.227   0.726
 1052SOL    HW1 3218   2.426   3.140   0.735
 1052SOL    HW2 3219   2.452   3.270   0.639
 1053SOL     OW 3220   3.155   3.090   1.423
 1053SOL    HW1 3221   3.192   3.017   1.365
 1053SOL    HW2 3222   3.207   3.095   1.508
 1054SOL     OW 3223   2.671   1.866   0.502
 1054SOL    HW1 3224   2.711   1.957   0.493
 1054SOL    HW2 3225   2.571   1.874   0.508
 1055SOL     OW 3226   2.059   2.838   1.264
 1055SOL    HW1 3227   2.148   2.793   1.250
 1055SOL    HW2 3228   1.986   2.773   1.245
 1056SOL     OW 3229   3.328   3.279   0.953
 1056SOL    HW1 3230   3.269   3.285   1.033
 1056SOL    HW2 3231   3.313   3.191   0.907
 1057SOL     OW 3232   2.460   2.591   0.270
 1057SOL    HW1 3233   2.484   2.660   0.202
 1057SOL    HW2 3234   2.382   2.624   0.324
 1058SOL     OW 3235   3.143   2.207   0.944
 1058SOL    HW1 3236   3.057   2.157   0.931
 1058SOL    HW2 3237   3.205   2.153   1.000
 1059SOL     OW 3238   2.669   2.467   1.465
 1059SOL    HW1 3239   2.622   2.464   1.554
 1059SOL    HW2 3240   2.618   2.412   1.399
 1060SOL     OW 3241   3.256   2.331   1.674
 1060SOL    HW1 3242   3.236   2.374   1.762
 1060SOL    HW2 3243   3.334   2.269   1.683
 1061SOL     OW 3244   2.835   2.752   1.572
 1061SOL    HW1 3245   2.881   2.668   1.543
 1061SOL    HW2 3246   2.779   2.786   1.497
 1062SOL     OW 3247   2.853   2.272   1.242
 1062SOL    HW1 3248   2.776   2.306   1.296
 1062SOL    HW2 3249   2.819   2.221   1.163
 1063SOL     OW 3250   2.903   2.563   0.429
 1063SOL    HW1 3251   2.929   2.559   0.525
 1063SOL    HW2 3252   2.818   2.512   0.415
 1064SOL     OW 3253   1.938   2.673   0.789
 1064SOL    HW1 3254   2.037   2.661   0.798
 1064SOL    HW2 3255   1.914   2.768   0.810
 1065SOL     OW 3256   2.727   2.210   0.195
 1065SOL    HW1 3257   2.786   2.273   0.146
 1065SOL    HW2 3258   2.746   2.116   0.166
 1066SOL     OW 3259   3.224   3.006   0.545
 1066SOL    HW1 3260   3.307   2.977   0.497
 1066SOL    HW2 3261   3.175   3.073   0.489
 1067SOL     OW 3262   2.412   2.058   0.885
 1067SOL    HW1 3263   2.407   2.053   0.985
 1067SOL    HW2 3264   2.414   2.154   0.856
 1068SOL     OW 3265   2.870   3.318   0.477
 1068SOL    HW1 3266   2.824   3.390   0.425
 1068SOL    HW2 3267   2.866   3.338   0.575
 1069SOL     OW 3268   3.089   3.412   1.506
 1069SOL    HW1 3269   3.095   3.335   1.570
 1069SOL    HW2 3270   3.037   3.386   1.426
 1070SOL     OW 3271   2.183   2.805   0.242
 1070SOL    HW1 3272   2.265   2.844   0.200
 1070SOL    HW2 3273   2.156   2.723   0.193
 1071SOL     OW 3274   2.323   3.128   1.727
 1071SOL    HW1 3275   2.273   3.129   1.641
 1071SOL    HW2 3276   2.260   3.110   1.803
 1072SOL     OW 3277   2.973   3.638   0.237
 1072SOL    HW1 3278   2.913   3.576   0.287
 1072SOL    HW2 3279   3.004   3.594   0.152
 1073SOL     OW 3280   3.262   1.969   0.426
 1073SOL    HW1 3281   3.238   1.932   0.336
 1073SOL    HW2 3282   3.361   1.985   0.430
 1074SOL     OW 3283   2.244   2.562   0.480
 1074SOL    HW1 3284   2.289   2.472   0.477
 1074SOL    HW2 3285   2.150   2.551   0.513
 1075SOL     OW 3286   2.476   1.984   0.117
 1075SOL    HW1 3287   2.574   1.962   0.124
 1075SOL    HW2 3288   2.445   1.967   0.024
 1076SOL     OW 3289   2.643   2.126   1.749
 1076SOL    HW1 3290   2.710   2.065   1.792
 1076SOL    HW2 3291   2.570   2.145   1.814
 1077SOL     OW 3292   3.213   2.452   1.433
 1077SOL    HW1 3293   3.241   2.409   1.518
 1077SOL    HW2 3294   3.238   2.548   1.434
 1078SOL     OW 3295   2.665   3.264   0.924
 1078SOL    HW1 3296   2.755   3.278   0.882
 1078SOL    HW2 3297   2.594   3.266   0.853
 1079SOL     OW 3298   2.784   2.365   0.899
 1079SOL    HW1 3299   2.759   2.356   0.803
 1079SOL    HW2 3300   2.832   2.283   0.930
 1080SOL     OW 3301   2.401   1.926   0.512
 1080SOL    HW1 3302   2.320   1.927   0.570
 1080SOL    HW2 3303   2.404   2.009   0.457
 1081SOL     OW 3304   3.296   3.050   0.041
 1081SOL    HW1 3305   3.328   2.974   0.098
 1081SOL    HW2 3306   3.204   3.077   0.071
 1082SOL     OW 3307   2.159   1.897   0.171
 1082SOL    HW1 3308   2.208   1.981   0.150
 1082SOL    HW2 3309   2.221   1.832   0.216
 1083SOL     OW 3310   2.797   2.098   0.480
 1083SOL    HW1 3311   2.749   2.139   0.402
 1083SOL    HW2 3312   2.896   2.096   0.461
 1084SOL     OW 3313   2.938   2.545   1.464
 1084SOL    HW1 3314   2.858   2.484   1.467
 1084SOL    HW2 3315   3.019   2.492   1.440
 1085SOL     OW 3316   3.089   3.432   0.793
 1085SOL    HW1 3317   3.110   3.506   0.728
 1085SOL    HW2 3318   3.157   3.432   0.866
 1086SOL     OW 3319   2.321   3.014   0.741
 1086SOL    HW1 3320   2.250   2.987   0.806
 1086SOL    HW2 3321   2.295   2.986   0.648
 1087SOL     OW 3322   2.894   2.411   0.016
 1087SOL    HW1 3323   2.853   2.493  -0.023
 1087SOL    HW2 3324   2.958   2.437   0.089
 1088SOL     OW 3325   1.940   2.418   1.386
 1088SOL    HW1 3326   2.032   2.417   1.345
 1088SOL    HW2 3327   1.934   2.492   1.453
 1089SOL     OW 3328   2.423   2.084   1.147
 1089SOL    HW1 3329   2.461   2.000   1.184
 1089SOL    HW2 3330   2.335   2.103   1.191
 1090SOL     OW 3331   2.728   2.316   0.642
 1090SOL    HW1 3332   2.696   2.388   0.580
 1090SOL    HW2 3333   2.752   2.235   0.589
 1091SOL     OW 3334   2.879   1.901   0.753
 1091SOL    HW1 3335   2.807   1.906   0.684
 1091SOL    HW2 3336   2.855   1.832   0.822
 1092SOL     OW 3337   3.291   3.035   0.867
 1092SOL    HW1 3338   3.236   2.951   0.860
 1092SOL    HW2 3339   3.317   3.064   0.775
 1093SOL     OW 3340   2.350   3.247   0.174
 1093SOL    HW1 3341   2.263   3.232   0.221
 1093SOL    HW2 3342   2.333   3.273   0.079
 1094SOL     OW 3343   3.252   2.437   0.078
 1094SOL    HW1 3344   3.198   2.416   0.159
 1094SOL    HW2 3345   3.343   2.396   0.087
 1095SOL     OW 3346   2.389   2.118   0.328
 1095SOL    HW1 3347   2.416   2.059   0.253
 1095SOL    HW2 3348   2.389   2.213   0.297
 1096SOL     OW 3349   2.926   3.209   1.340
 1096SOL    HW1 3350   2.846   3.186   1.395
 1096SOL    HW2 3351   3.009   3.183   1.389
 1097SOL     OW 3352   2.973   3.057   1.100
 1097SOL    HW1 3353   2.933   3.101   1.181
 1097SOL    HW2 3354   2.932   3.094   1.017
 1098SOL     OW 3355   2.777   1.951   1.402
 1098SOL    HW1 3356   2.802   1.931   1.307
 1098SOL    HW2 3357   2.849   2.007   1.444
 1099SOL     OW 3358   2.842   2.978   1.719
 1099SOL    HW1 3359   2.743   2.984   1.729
 1099SOL    HW2 3360   2.865   2.898   1.663
 1100SOL     OW 3361   2.567   2.912   0.368
 1100SOL    HW1 3362   2.553   2.919   0.467
 1100SOL    HW2 3363   2.651   2.861   0.350
 1101SOL     OW 3364   2.272   2.675   1.251
 1101SOL    HW1 3365   2.358   2.687   1.301
 1101SOL    HW2 3366   2.230   2.588   1.278
 1102SOL     OW 3367   3.136   2.248   1.262
 1102SOL    HW1 3368   3.157   2.322   1.326
 1102SOL    HW2 3369   3.047   2.265   1.219
 1103SOL     OW 3370   2.229   2.962   0.501
 1103SOL    HW1 3371   2.222   3.045   0.445
 1103SOL    HW2 3372   2.233   2.882   0.441
 1104SOL     OW 3373   2.428   2.399   0.865
 1104SOL    HW1 3374   2.440   2.465   0.791
 1104SOL    HW2 3375   2.474   2.433   0.948
 1105SOL     OW 3376   3.114   3.210   0.388
 1105SOL    HW1 3377   3.164   3.287   0.428
 1105SOL    HW2 3378   3.019   3.212   0.420
 1106SOL     OW 3379   3.134   3.307   1.142
 1106SOL    HW1 3380   3.181   3.320   1.229
 1106SOL    HW2 3381   3.068   3.233   1.151
 1107SOL     OW 3382   2.216   3.372   1.329
 1107SOL    HW1 3383   2.195   3.328   1.242
 1107SOL    HW2 3384   2.313   3.398   1.332
 1108SOL     OW 3385   2.264   2.613   1.598
 1108SOL    HW1 3386   2.332   2.668   1.551
 1108SOL    HW2 3387   2.304   2.525   1.625
 1109SOL     OW 3388   2.875   1.967   1.770
 1109SOL    HW1 3389   2.881   2.052   1.718
 1109SOL    HW2 3390   2.907   1.891   1.713
 1110SOL     OW 3391   2.435   2.732   1.029
 1110SOL    HW1 3392   2.479   2.821   1.020
 1110SOL    HW2 3393   2.372   2.732   1.106
 1111SOL     OW 3394   3.222   2.724   1.045
 1111SOL    HW1 3395   3.147   2.724   0.979
 1111SOL    HW2 3396   3.259   2.632   1.054
 1112SOL     OW 3397   3.071   2.387   0.275
 1112SOL    HW1 3398   3.084   2.303   0.329
 1112SOL    HW2 3399   3.042   2.461   0.335
 1113SOL     OW 3400   2.169   2.075   1.231
 1113SOL    HW1 3401   2.146   2.112   1.321
 1113SOL    HW2 3402   2.139   1.980   1.225
 1114SOL     OW 3403   1.899   3.172   1.282
 1114SOL    HW1 3404   1.952   3.123   1.350
 1114SOL    HW2 3405   1.921   3.270   1.287
 1115SOL     OW 3406   2.594   2.496   1.064
 1115SOL    HW1 3407   2.653   2.470   0.988
 1115SOL    HW2 3408   2.566   2.592   1.053
 1116SOL     OW 3409   2.169   1.925   0.618
 1116SOL    HW1 3410   2.158   2.019   0.651
 1116SOL    HW2 3411   2.164   1.862   0.695
 1117SOL     OW 3412   3.484   2.229   0.374
 1117SOL    HW1 3413   3.486   2.153   0.438
 1117SOL    HW2 3414   3.436   2.306   0.414
 1118SOL     OW 3415   2.885   2.628   0.966
 1118SOL    HW1 3416   2.900   2.649   1.062
 1118SOL    HW2 3417   2.855   2.533   0.957
 1119SOL     OW 3418   2.212   2.760   1.804
 1119SOL    HW1 3419   2.288   2.804   1.852
 1119SOL    HW2 3420   2.247   2.713   1.722
 1120SOL     OW 3421   3.165   2.700   0.042
 1120SOL    HW1 3422   3.199   2.607   0.057
 1120SOL    HW2 3423   3.183   2.727  -0.053
 1121SOL     OW 3424   2.930   3.195   0.849
 1121SOL    HW1 3425   2.937   3.111   0.794
 1121SOL    HW2 3426   2.992   3.264   0.813
 1122SOL     OW 3427   2.181   2.672   0.949
 1122SOL    HW1 3428   2.274   2.708   0.954
 1122SOL    HW2 3429   2.175   2.587   1.001
 1123SOL     OW 3430   2.201   2.371   1.006
 1123SOL    HW1 3431   2.149   2.288   0.989
 1123SOL    HW2 3432   2.278   2.376   0.942
 1124SOL     OW 3433   3.000   2.242   1.678
 1124SOL    HW1 3434   2.955   2.305   1.742
 1124SOL    HW2 3435   3.093   2.273   1.661
 1125SOL     OW 3436   3.022   2.069   1.477
 1125SOL    HW1 3437   3.022   2.133   1.554
 1125SOL    HW2 3438   3.050   2.117   1.394
 1126SOL     OW 3439   1.870   3.188   0.200
 1126SOL    HW1 3440   1.777   3.209   0.169
 1126SOL    HW2 3441   1.880   3.089   0.213
 1127SOL     OW 3442   2.864   2.658   1.238
 1127SOL    HW1 3443   2.905   2.626   1.324
 1127SOL    HW2 3444   2.768   2.631   1.235
 1128SOL     OW 3445   1.902   2.406   1.114
 1128SOL    HW1 3446   1.987   2.373   1.073
 1128SOL    HW2 3447   1.915   2.421   1.212
 1129SOL     OW 3448   2.051   2.382   1.722
 1129SOL    HW1 3449   2.110   2.342   1.652
 1129SOL    HW2 3450   1.993   2.453   1.681
 1130SOL     OW 3451   3.231   2.812   1.660
 1130SOL    HW1 3452   3.270   2.901   1.680
 1130SOL    HW2 3453   3.241   2.792   1.563
 1131SOL     OW 3454   2.677   2.434   0.325
 1131SOL    HW1 3455   2.684   2.345   0.279
 1131SOL    HW2 3456   2.583   2.468   0.317
 1132SOL     OW 3457   2.114   3.426   1.744
 1132SOL    HW1 3458   2.084   3.483   1.820
 1132SOL    HW2 3459   2.107   3.329   1.770
 1133SOL     OW 3460   2.533   2.326   1.269
 1133SOL    HW1 3461   2.499   2.237   1.239
 1133SOL    HW2 3462   2.559   2.380   1.189
 1134SOL     OW 3463   2.335   2.362   0.191
 1134SOL    HW1 3464   2.396   2.442   0.195
 1134SOL    HW2 3465   2.240   2.393   0.198
 1135SOL     OW 3466   2.021   2.999   1.466
 1135SOL    HW1 3467   2.043   2.938   1.542
 1135SOL    HW2 3468   2.031   2.950   1.380
 1136SOL     OW 3469   3.209   2.921   1.234
 1136SOL    HW1 3470   3.233   2.858   1.160
 1136SOL    HW2 3471   3.119   2.961   1.216
 1137SOL     OW 3472   3.164   2.717   0.309
 1137SOL    HW1 3473   3.078   2.686   0.351
 1137SOL    HW2 3474   3.160   2.703   0.210
 1138SOL     OW 3475   1.945   3.120   1.022
 1138SOL    HW1 3476   1.940   3.119   1.122
 1138SOL    HW2 3477   1.862   3.079   0.984
 1139SOL     OW 3478   2.550   3.524   1.716
 1139SOL    HW1 3479   2.494   3.605   1.725
 1139SOL    HW2 3480   2.602   3.528   1.630
 1140SOL     OW 3481   2.765   1.948   0.133
 1140SOL    HW1 3482   2.816   1.949   0.047
 1140SOL    HW2 3483   2.821   1.906   0.204
 1141SOL     OW 3484   3.588   1.997   0.523
 1141SOL    HW1 3485   3.661   1.980   0.456
 1141SOL    HW2 3486   3.557   1.910   0.561
 1142SOL     OW 3487   3.142   2.789   0.672
 1142SOL    HW1 3488   3.202   2.708   0.674
 1142SOL    HW2 3489   3.182   2.858   0.612
 1143SOL     OW 3490   2.692   3.135   1.422
 1143SOL    HW1 3491   2.687   3.168   1.517
 1143SOL    HW2 3492   2.606   3.154   1.376
 1144SOL     OW 3493   2.125   2.188   0.720
 1144SOL    HW1 3494   2.046   2.239   0.686
 1144SOL    HW2 3495   2.116   2.173   0.818
 1145SOL     OW 3496   3.056   3.474   0.031
 1145SOL    HW1 3497   3.062   3.381   0.068
 1145SOL    HW2 3498   2.997   3.474  -0.049
 1146SOL     OW 3499   2.684   2.864   1.372
 1146SOL    HW1 3500   2.724   2.863   1.280
 1146SOL    HW2 3501   2.694   2.956   1.412
 1147SOL     OW 3502   2.778   2.772   0.291
 1147SOL    HW1 3503   2.841   2.810   0.223
 1147SOL    HW2 3504   2.818   2.689   0.330
 1148SOL     OW 3505   2.234   3.150   1.490
 1148SOL    HW1 3506   2.221   3.243   1.456
 1148SOL    HW2 3507   2.150   3.098   1.477
 1149SOL     OW 3508   2.901   2.960   0.696
 1149SOL    HW1 3509   2.831   2.913   0.750
 1149SOL    HW2 3510   2.960   2.892   0.653
 1150SOL     OW 3511   2.876   2.098   0.971
 1150SOL    HW1 3512   2.868   2.062   0.878
 1150SOL    HW2 3513   2.874   2.022   1.036
 1151SOL     OW 3514   2.117   3.210   0.290
 1151SOL    HW1 3515   2.021   3.211   0.263
 1151SOL    HW2 3516   2.129   3.263   0.374
 1152SOL     OW 3517   1.967   2.875   1.726
 1152SOL    HW1 3518   1.890   2.842   1.780
 1152SOL    HW2 3519   2.052   2.845   1.768
 1153SOL     OW 3520   2.534   2.065   1.489
 1153SOL    HW1 3521   2.624   2.049   1.449
 1153SOL    HW2 3522   2.542   2.070   1.588
 1154SOL     OW 3523   3.302   2.718   1.398
 1154SOL    HW1 3524   3.245   2.770   1.335
 1154SOL    HW2 3525   3.398   2.730   1.374
 1155SOL     OW 3526   1.934   2.028   0.318
 1155SOL    HW1 3527   1.917   2.111   0.264
 1155SOL    HW2 3528   2.024   1.991   0.296
 1156SOL     OW 3529   3.045   3.197   0.119
 1156SOL    HW1 3530   2.946   3.186   0.121
 1156SOL    HW2 3531   3.079   3.212   0.212
 1157SOL     OW 3532   2.475   2.704   1.431
 1157SOL    HW1 3533   2.531   2.785   1.414
 1157SOL    HW2 3534   2.534   2.624   1.434
 1158SOL     OW 3535   2.578   2.427   1.708
 1158SOL    HW1 3536   2.597   2.492   1.782
 1158SOL    HW2 3537   2.638   2.347   1.717
 1159SOL     OW 3538   3.312   3.082   1.633
 1159SOL    HW1 3539   3.303   3.072   1.732
 1159SOL    HW2 3540   3.408   3.075   1.607
 1160SOL     OW 3541   3.087   2.187   0.449
 1160SOL    HW1 3542   3.152   2.113   0.438
 1160SOL    HW2 3543   3.107   2.237   0.533
 1161SOL     OW 3544   2.456   2.607   0.652
 1161SOL    HW1 3545   2.506   2.692   0.633
 1161SOL    HW2 3546   2.368   2.609   0.604
 1162SOL     OW 3547   2.721   3.236   0.016
 1162SOL    HW1 3548   2.675   3.251   0.104
 1162SOL    HW2 3549   2.765   3.321  -0.014
 1163SOL     OW 3550   3.270   3.713   1.720
 1163SOL    HW1 3551   3.174   3.702   1.693
 1163SOL    HW2 3552   3.326   3.646   1.672
 1164SOL     OW 3553   2.721   2.818   0.861
 1164SOL    HW1 3554   2.775   2.749   0.909
 1164SOL    HW2 3555   2.689   2.887   0.927
 1165SOL     OW 3556   2.945   2.846   0.087
 1165SOL    HW1 3557   2.922   2.899   0.005
 1165SOL    HW2 3558   3.026   2.790   0.068
 1166SOL     OW 3559   2.083   3.176   1.844
 1166SOL    HW1 3560   2.018   3.103   1.823
 1166SOL    HW2 3561   2.087   3.190   1.942
 1167SOL     OW 3562   1.941   3.102   0.653
 1167SOL    HW1 3563   1.940   3.055   0.741
 1167SOL    HW2 3564   2.023   3.074   0.602
 1168SOL     OW 3565   2.534   3.253   1.624
 1168SOL    HW1 3566   2.456   3.203   1.662
 1168SOL    HW2 3567   2.531   3.348   1.655
 1169SOL     OW 3568   2.290   2.286   0.520
 1169SOL    HW1 3569   2.320   2.214   0.458
 1169SOL    HW2 3570   2.251   2.246   0.603
 1170SOL     OW 3571   2.179   2.409   1.280
 1170SOL    HW1 3572   2.217   2.350   1.352
 1170SOL    HW2 3573   2.219   2.383   1.192
 1171SOL     OW 3574   3.286   2.076   1.112
 1171SOL    HW1 3575   3.338   2.011   1.167
 1171SOL    HW2 3576   3.237   2.139   1.173
 1172SOL     OW 3577   2.863   1.896   1.154
 1172SOL    HW1 3578   2.800   1.824   1.123
 1172SOL    HW2 3579   2.956   1.860   1.154
 1173SOL     OW 3580   2.632   3.192   0.301
 1173SOL    HW1 3581   2.586   3.105   0.318
 1173SOL    HW2 3582   2.723   3.189   0.342
 1174SOL     OW 3583   2.480   3.429   1.284
 1174SOL    HW1 3584   2.475   3.511   1.341
 1174SOL    HW2 3585   2.569   3.426   1.239
 1175SOL     OW 3586   3.214   1.914   0.168
 1175SOL    HW1 3587   3.249   1.873   0.084
 1175SOL    HW2 3588   3.124   1.876   0.188
 1176SOL     OW 3589   3.162   2.315   0.691
 1176SOL    HW1 3590   3.103   2.395   0.695
 1176SOL    HW2 3591   3.177   2.280   0.784
 1177SOL     OW 3592   3.455   2.083   0.882
 1177SOL    HW1 3593   3.371   2.082   0.936
 1177SOL    HW2 3594   3.457   2.166   0.826
 1178SOL     OW 3595   1.901   2.939   0.300
 1178SOL    HW1 3596   2.000   2.928   0.291
 1178SOL    HW2 3597   1.861   2.853   0.332
 1179SOL     OW 3598   2.092   2.490   1.975
 1179SOL    HW1 3599   1.999   2.488   2.012
 1179SOL    HW2 3600   2.093   2.451   1.883
 1180SOL     OW 3601   2.087   2.137   2.858
 1180SOL    HW1 3602   2.122   2.120   2.950
 1180SOL    HW2 3603   1.999   2.092   2.846
 1181SOL     OW 3604   1.881   2.230   2.509
 1181SOL    HW1 3605   1.799   2.273   2.548
 1181SOL    HW2 3606   1.853   2.157   2.446
 1182SOL     OW 3607   2.431   3.137   3.027
 1182SOL    HW1 3608   2.338   3.130   2.990
 1182SOL    HW2 3609   2.442   3.226   3.071
 1183SOL     OW 3610   3.417   3.373   2.565
 1183SOL    HW1 3611   3.360   3.357   2.646
 1183SOL    HW2 3612   3.358   3.383   2.485
 1184SOL     OW 3613   2.997   2.565   2.579
 1184SOL    HW1 3614   3.054   2.643   2.554
 1184SOL    HW2 3615   2.937   2.591   2.655
 1185SOL     OW 3616   2.630   3.006   2.885
 1185SOL    HW1 3617   2.552   3.023   2.945
 1185SOL    HW2 3618   2.664   3.093   2.849
 1186SOL     OW 3619   2.547   2.874   2.527
 1186SOL    HW1 3620   2.616   2.858   2.597
 1186SOL    HW2 3621   2.474   2.931   2.565
 1187SOL     OW 3622   2.197   3.297   2.923
 1187SOL    HW1 3623   2.119   3.266   2.870
 1187SOL    HW2 3624   2.255   3.355   2.866
 1188SOL     OW 3625   3.322   3.367   3.201
 1188SOL    HW1 3626   3.346   3.461   3.227
 1188SOL    HW2 3627   3.306   3.313   3.283
 1189SOL     OW 3628   2.300   2.254   3.361
 1189SOL    HW1 3629   2.382   2.198   3.370
 1189SOL    HW2 3630   2.219   2.196   3.365
 1190SOL     OW 3631   2.092   3.296   2.400
 1190SOL    HW1 3632   2.066   3.392   2.400
 1190SOL    HW2 3633   2.021   3.242   2.445
 1191SOL     OW 3634   2.102   2.953   2.748
 1191SOL    HW1 3635   2.116   2.869   2.800
 1191SOL    HW2 3636   2.047   3.017   2.803
 1192SOL     OW 3637   2.468   2.826   1.985
 1192SOL    HW1 3638   2.475   2.910   1.931
 1192SOL    HW2 3639   2.514   2.839   2.073
 1193SOL     OW 3640   1.984   2.505   2.425
 1193SOL    HW1 3641   1.939   2.417   2.442
 1193SOL    HW2 3642   1.983   2.559   2.509
 1194SOL     OW 3643   1.889   3.458   1.979
 1194SOL    HW1 3644   1.870   3.362   2.000
 1194SOL    HW2 3645   1.856   3.516   2.054
 1195SOL     OW 3646   3.551   2.784   2.474
 1195SOL    HW1 3647   3.646   2.755   2.482
 1195SOL    HW2 3648   3.543   2.849   2.399
 1196SOL     OW 3649   2.475   3.227   2.588
 1196SOL    HW1 3650   2.426   3.140   2.597
 1196SOL    HW2 3651   2.452   3.270   2.501
 1197SOL     OW 3652   2.671   1.866   2.364
 1197SOL    HW1 3653   2.711   1.957   2.355
 1197SOL    HW2 3654   2.571   1.874   2.370
 1198SOL     OW 3655   2.059   2.838   3.126
 1198SOL    HW1 3656   2.148   2.793   3.112
 1198SOL    HW2 3657   1.986   2.773   3.107
 1199SOL     OW 3658   3.328   3.279   2.815
 1199SOL    HW1 3659   3.269   3.285   2.895
 1199SOL    HW2 3660   3.313   3.191   2.769
 1200SOL     OW 3661   2.460   2.591   2.132
 1200SOL    HW1 3662   2.484   2.660   2.064
 1200SOL    HW2 3663   2.382   2.624   2.186
 1201SOL     OW 3664   3.143   2.207   2.806
 1201SOL    HW1 3665   3.057   2.157   2.793
 1201SOL    HW2 3666   3.205   2.153   2.862
 1202SOL     OW 3667   2.669   2.467   3.327
 1202SOL    HW1 3668   2.622   2.464   3.416
 1202SOL    HW2 3669   2.618   2.412   3.261
 1203SOL     OW 3670   2.835   2.752   3.434
 1203SOL    HW1 3671   2.881   2.668   3.405
 1203SOL    HW2 3672   2.779   2.786   3.359
 1204SOL     OW 3673   2.853   2.272   3.104
 1204SOL    HW1 3674   2.776   2.306   3.158
 1204SOL    HW2 3675   2.819   2.221   3.025
 1205SOL     OW 3676   2.903   2.563   2.291
 1205SOL    HW1 3677   2.929   2.559   2.387
 1205SOL    HW2 3678   2.818   2.512   2.277
 1206SOL     OW 3679   1.938   2.673   2.651
 1206SOL    HW1 3680   2.037   2.661   2.660
 1206SOL    HW2 3681   1.914   2.768   2.672
 1207SOL     OW 3682   2.727   2.210   2.057
 1207SOL    HW1 3683   2.786   2.273   2.008
 1207SOL    HW2 3684   2.746   2.116   2.028
 1208SOL     OW 3685   3.224   3.006   2.407
 1208SOL    HW1 3686   3.307   2.977   2.359
 1208SOL    HW2 3687   3.175   3.073   2.351
 1209SOL     OW 3688   2.412   2.058   2.747
 1209SOL    HW1 3689   2.407   2.053   2.847
 1209SOL    HW2 3690   2.414   2.154   2.718
 1210SOL     OW 3691   2.870   3.318   2.339
 1210SOL    HW1 3692   2.824   3.390   2.287
 1210SOL    HW2 3693   2.866   3.338   2.437
 1211SOL     OW 3694   2.183   2.805   2.104
 1211SOL    HW1 3695   2.265   2.844   2.062
 1211SOL    HW2 3696   2.156   2.723   2.055
 1212SOL     OW 3697   2.973   3.638   2.099
 1212SOL    HW1 3698   2.913   3.576   2.149
 1212SOL    HW2 3699   3.004   3.594   2.014
 1213SOL     OW 3700   2.064   2.147   3.360
 1213SOL    HW1 3701   1.984   2.207   3.347
 1213SOL    HW2 3702   2.054   2.098   3.446
 1214SOL     OW 3703   3.262   1.969   2.288
 1214SOL    HW1 3704   3.238   1.932   2.198
 1214SOL    HW2 3705   3.361   1.985   2.292
 1215SOL     OW 3706   2.244   2.562   2.342
 1215SOL    HW1 3707   2.289   2.472   2.339
 1215SOL    HW2 3708   2.150   2.551   2.375
 1216SOL     OW 3709   2.476   1.984   1.979
 1216SOL    HW1 3710   2.574   1.962   1.986
 1216SOL    HW2 3711   2.445   1.967   1.886
 1217SOL     OW 3712   2.665   3.264   2.786
 1217SOL    HW1 3713   2.755   3.278   2.744
 1217SOL    HW2 3714   2.594   3.266   2.715
 1218SOL     OW 3715   2.784   2.365   2.761
 1218SOL    HW1 3716   2.759   2.356   2.665
 1218SOL    HW2 3717   2.832   2.283   2.792
 1219SOL     OW 3718   2.401   1.926   2.374
 1219SOL    HW1 3719   2.320   1.927   2.432
 1219SOL    HW2 3720   2.404   2.009   2.319
 1220SOL     OW 3721   3.296   3.050   1.903
 1220SOL    HW1 3722   3.328   2.974   1.960
 1220SOL    HW2 3723   3.204   3.077   1.933
 1221SOL     OW 3724   2.159   1.897   2.033
 1221SOL    HW1 3725   2.208   1.981   2.012
 1221SOL    HW2 3726   2.221   1.832   2.078
 1222SOL     OW 3727   2.797   2.098   2.342
 1222SOL    HW1 3728   2.749   2.139   2.264
 1222SOL    HW2 3729   2.896   2.096   2.323
 1223SOL     OW 3730   3.089   3.432   2.655
 1223SOL    HW1 3731   3.110   3.506   2.590
 1223SOL    HW2 3732   3.157   3.432   2.728
 1224SOL     OW 3733   2.321   3.014   2.603
 1224SOL    HW1 3734   2.250   2.987   2.668
 1224SOL    HW2 3735   2.295   2.986   2.510
 1225SOL     OW 3736   2.894   2.411   1.878
 1225SOL    HW1 3737   2.853   2.493   1.839
 1225SOL    HW2 3738   2.958   2.437   1.951
 1226SOL     OW 3739   1.940   2.418   3.248
 1226SOL    HW1 3740   2.032   2.417   3.207
 1226SOL    HW2 3741   1.934   2.492   3.315
 1227SOL     OW 3742   2.423   2.084   3.009
 1227SOL    HW1 3743   2.461   2.000   3.046
 1227SOL    HW2 3744   2.335   2.103   3.053
 1228SOL     OW 3745   2.728   2.316   2.504
 1228SOL    HW1 3746   2.696   2.388   2.442
 1228SOL    HW2 3747   2.752   2.235   2.451
 1229SOL     OW 3748   2.879   1.901   2.615
 1229SOL    HW1 3749   2.807   1.906   2.546
 1229SOL    HW2 3750   2.855   1.832   2.684
 1230SOL     OW 3751   3.291   3.035   2.729
 1230SOL    HW1 3752   3.236   2.951   2.722
 1230SOL    HW2 3753   3.317   3.064   2.637
 1231SOL     OW 3754   2.350   3.247   2.036
 1231SOL    HW1 3755   2.263   3.232   2.083
 1231SOL    HW2 3756   2.333   3.273   1.941
 1232SOL     OW 3757   3.252   2.437   1.940
 1232SOL    HW1 3758   3.198   2.416   2.021
 1232SOL    HW2 3759   3.343   2.396   1.949
 1233SOL     OW 3760   2.389   2.118   2.190
 1233SOL    HW1 3761   2.416   2.059   2.115
 1233SOL    HW2 3762   2.389   2.213   2.159
 1234SOL     OW 3763   2.926   3.209   3.202
 1234SOL    HW1 3764   2.846   3.186   3.257
 1234SOL    HW2 3765   3.009   3.183   3.251
 1235SOL     OW 3766   2.973   3.057   2.962
 1235SOL    HW1 3767   2.933   3.101   3.043
 1235SOL    HW2 3768   2.932   3.094   2.879
 1236SOL     OW 3769   2.777   1.951   3.264
 1236SOL    HW1 3770   2.802   1.931   3.169
 1236SOL    HW2 3771   2.849   2.007   3.306
 1237SOL     OW 3772   2.567   2.912   2.230
 1237SOL    HW1 3773   2.553   2.919   2.329
 1237SOL    HW2 3774   2.651   2.861   2.212
 1238SOL     OW 3775   2.272   2.675   3.113
 1238SOL    HW1 3776   2.358   2.687   3.163
 1238SOL    HW2 3777   2.230   2.588   3.140
 1239SOL     OW 3778   3.136   2.248   3.124
 1239SOL    HW1 3779   3.157   2.322   3.188
 1239SOL    HW2 3780   3.047   2.265   3.081
 1240SOL     OW 3781   2.229   2.962   2.363
 1240SOL    HW1 3782   2.222   3.045   2.307
 1240SOL    HW2 3783   2.233   2.882   2.303
 1241SOL     OW 3784   2.428   2.399   2.727
 1241SOL    HW1 3785   2.440   2.465   2.653
 1241SOL    HW2 3786   2.474   2.433   2.810
 1242SOL     OW 3787   3.114   3.210   2.250
 1242SOL    HW1 3788   3.164   3.287   2.290
 1242SOL    HW2 3789   3.019   3.212   2.282
 1243SOL     OW 3790   3.134   3.307   3.004
 1243SOL    HW1 3791   3.181   3.320   3.091
 1243SOL    HW2 3792   3.068   3.233   3.013
 1244SOL     OW 3793   2.216   3.372   3.191
 1244SOL    HW1 3794   2.195   3.328   3.104
 1244SOL    HW2 3795   2.313   3.398   3.194
 1245SOL     OW 3796   2.264   2.613   3.460
 1245SOL    HW1 3797   2.332   2.668   3.413
 1245SOL    HW2 3798   2.304   2.525   3.487
 1246SOL     OW 3799   3.449   2.641   3.532
 1246SOL    HW1 3800   3.357   2.679   3.527
 1246SOL    HW2 3801   3.509   2.688   3.467
 1247SOL     OW 3802   2.435   2.732   2.891
 1247SOL    HW1 3803   2.479   2.821   2.882
 1247SOL    HW2 3804   2.372   2.732   2.968
 1248SOL     OW 3805   3.222   2.724   2.907
 1248SOL    HW1 3806   3.147   2.724   2.841
 1248SOL    HW2 3807   3.259   2.632   2.916
 1249SOL     OW 3808   3.071   2.387   2.137
 1249SOL    HW1 3809   3.084   2.303   2.191
 1249SOL    HW2 3810   3.042   2.461   2.197
 1250SOL     OW 3811   2.169   2.075   3.093
 1250SOL    HW1 3812   2.146   2.112   3.183
 1250SOL    HW2 3813   2.139   1.980   3.087
 1251SOL     OW 3814   1.899   3.172   3.144
 1251SOL    HW1 3815   1.952   3.123   3.212
 1251SOL    HW2 3816   1.921   3.270   3.149
 1252SOL     OW 3817   2.594   2.496   2.926
 1252SOL    HW1 3818   2.653   2.470   2.850
 1252SOL    HW2 3819   2.566   2.592   2.915
 1253SOL     OW 3820   2.169   1.925   2.480
 1253SOL    HW1 3821   2.158   2.019   2.513
 1253SOL    HW2 3822   2.164   1.862   2.557
 1254SOL     OW 3823   3.484   2.229   2.236
 1254SOL    HW1 3824   3.486   2.153   2.300
 1254SOL    HW2 3825   3.436   2.306   2.276
 1255SOL     OW 3826   2.885   2.628   2.828
 1255SOL    HW1 3827   2.900   2.649   2.924
 1255SOL    HW2 3828   2.855   2.533   2.819
 1256SOL     OW 3829   3.165   2.700   1.904
 1256SOL    HW1 3830   3.199   2.607   1.919
 1256SOL    HW2 3831   3.183   2.727   1.809
 1257SOL     OW 3832   2.930   3.195   2.711
 1257SOL    HW1 3833   2.937   3.111   2.656
 1257SOL    HW2 3834   2.992   3.264   2.675
 1258SOL     OW 3835   2.181   2.672   2.811
 1258SOL    HW1 3836   2.274   2.708   2.816
 1258SOL    HW2 3837   2.175   2.587   2.863
 1259SOL     OW 3838   2.201   2.371   2.868
 1259SOL    HW1 3839   2.149   2.288   2.851
 1259SOL    HW2 3840   2.278   2.376   2.804
 1260SOL     OW 3841   3.000   2.242   3.540
 1260SOL    HW1 3842   2.955   2.305   3.604
 1260SOL    HW2 3843   3.093   2.273   3.523
 1261SOL     OW 3844   3.022   2.069   3.339
 1261SOL    HW1 3845   3.022   2.133   3.416
 1261SOL    HW2 3846   3.050   2.117   3.256
 1262SOL     OW 3847   1.870   3.188   2.062
 1262SOL    HW1 3848   1.777   3.209   2.031
 1262SOL    HW2 3849   1.880   3.089   2.075
 1263SOL     OW 3850   2.864   2.658   3.100
 1263SOL    HW1 3851   2.905   2.626   3.186
 1263SOL    HW2 3852   2.768   2.631   3.097
 1264SOL     OW 3853   1.902   2.406   2.976
 1264SOL    HW1 3854   1.987   2.373   2.935
 1264SOL    HW2 3855   1.915   2.421   3.074
 1265SOL     OW 3856   2.677   2.434   2.187
 1265SOL    HW1 3857   2.684   2.345   2.141
 1265SOL    HW2 3858   2.583   2.468   2.179
 1266SOL     OW 3859   2.533   2.326   3.131
 1266SOL    HW1 3860   2.499   2.237   3.101
 1266SOL    HW2 3861   2.559   2.380   3.051
 1267SOL     OW 3862   2.335   2.362   2.053
 1267SOL    HW1 3863   2.396   2.442   2.057
 1267SOL    HW2 3864   2.240   2.393   2.060
 1268SOL     OW 3865   2.021   2.999   3.328
 1268SOL    HW1 3866   2.043   2.938   3.404
 1268SOL    HW2 3867   2.031   2.950   3.242
 1269SOL     OW 3868   3.209   2.921   3.096
 1269SOL    HW1 3869   3.233   2.858   3.022
 1269SOL    HW2 3870   3.119   2.961   3.078
 1270SOL     OW 3871   3.164   2.717   2.171
 1270SOL    HW1 3872   3.078   2.686   2.213
 1270SOL    HW2 3873   3.160   2.703   2.072
 1271SOL     OW 3874   1.945   3.120   2.884
 1271SOL    HW1 3875   1.940   3.119   2.984
 1271SOL    HW2 3876   1.862   3.079   2.846
 1272SOL     OW 3877   3.588   1.997   2.385
 1272SOL    HW1 3878   3.661   1.980   2.318
 1272SOL    HW2 3879   3.557   1.910   2.423
 1273SOL     OW 3880   3.142   2.789   2.534
 1273SOL    HW1 3881   3.202   2.708   2.536
 1273SOL    HW2 3882   3.182   2.858   2.474
 1274SOL     OW 3883   2.125   2.188   2.582
 1274SOL    HW1 3884   2.046   2.239   2.548
 1274SOL    HW2 3885   2.116   2.173   2.680
 1275SOL     OW 3886   2.684   2.864   3.234
 1275SOL    HW1 3887   2.724   2.863   3.142
 1275SOL    HW2 3888   2.694   2.956   3.274
 1276SOL     OW 3889   2.778   2.772   2.153
 1276SOL    HW1 3890   2.841   2.810   2.085
 1276SOL    HW2 3891   2.818   2.689   2.192
 1277SOL     OW 3892   2.234   3.150   3.352
 1277SOL    HW1 3893   2.221   3.243   3.318
 1277SOL    HW2 3894   2.150   3.098   3.339
 1278SOL     OW 3895   2.901   2.960   2.558
 1278SOL    HW1 3896   2.831   2.913   2.612
 1278SOL    HW2 3897   2.960   2.892   2.515
 1279SOL     OW 3898   2.876   2.098   2.833
 1279SOL    HW1 3899   2.868   2.062   2.740
 1279SOL    HW2 3900   2.874   2.022   2.898
 1280SOL     OW 3901   2.117   3.210   2.152
 1280SOL    HW1 3902   2.021   3.211   2.125
 1280SOL    HW2 3903   2.129   3.263   2.236
 1281SOL     OW 3904   2.534   2.065   3.351
 1281SOL    HW1 3905   2.624   2.049   3.311
 1281SOL    HW2 3906   2.542   2.070   3.450
 1282SOL     OW 3907   1.937   2.207   1.895
 1282SOL    HW1 3908   1.845   2.179   1.866
 1282SOL    HW2 3909   1.968   2.284   1.839
 1283SOL     OW 3910   3.302   2.718   3.260
 1283SOL    HW1 3911   3.245   2.770   3.197
 1283SOL    HW2 3912   3.398   2.730   3.236
 1284SOL     OW 3913   1.934   2.028   2.180
 1284SOL    HW1 3914   1.917   2.111   2.126
 1284SOL    HW2 3915   2.024   1.991   2.158
 1285SOL     OW 3916   3.045   3.197   1.981
 1285SOL    HW1 3917   2.946   3.186   1.983
 1285SOL    HW2 3918   3.079   3.212   2.074
 1286SOL     OW 3919   2.475   2.704   3.293
 1286SOL    HW1 3920   2.531   2.785   3.276
 1286SOL    HW2 3921   2.534   2.624   3.296
 1287SOL     OW 3922   3.087   2.187   2.311
 1287SOL    HW1 3923   3.152   2.113   2.300
 1287SOL    HW2 3924   3.107   2.237   2.395
 1288SOL     OW 3925   2.456   2.607   2.514
 1288SOL    HW1 3926   2.506   2.692   2.495
 1288SOL    HW2 3927   2.368   2.609   2.466
 1289SOL     OW 3928   2.721   3.236   1.878
 1289SOL    HW1 3929   2.675   3.251   1.966
 1289SOL    HW2 3930   2.765   3.321   1.848
 1290SOL     OW 3931   3.270   3.713   3.582
 1290SOL    HW1 3932   3.174   3.702   3.555
 1290SOL    HW2 3933   3.326   3.646   3.534
 1291SOL     OW 3934   2.721   2.818   2.723
 1291SOL    HW1 3935   2.775   2.749   2.771
 1291SOL    HW2 3936   2.689   2.887   2.789
 1292SOL     OW 3937   2.945   2.846   1.949
 1292SOL    HW1 3938   2.922   2.899   1.867
 1292SOL    HW2 3939   3.026   2.790   1.930
 1293SOL     OW 3940   1.941   3.102   2.515
 1293SOL    HW1 3941   1.940   3.055   2.603
 1293SOL    HW2 3942   2.023   3.074   2.464
 1294SOL     OW 3943   2.290   2.286   2.382
 1294SOL    HW1 3944   2.320   2.214   2.320
 1294SOL    HW2 3945   2.251   2.246   2.465
 1295SOL     OW 3946   2.179   2.409   3.142
 1295SOL    HW1 3947   2.217   2.350   3.214
 1295SOL    HW2 3948   2.219   2.383   3.054
 1296SOL     OW 3949   3.286   2.076   2.974
 1296SOL    HW1 3950   3.338   2.011   3.029
 1296SOL    HW2 3951   3.237   2.139   3.035
 1297SOL     OW 3952   2.863   1.896   3.016
 1297SOL    HW1 3953   2.800   1.824   2.985
 1297SOL    HW2 3954   2.956   1.860   3.016
 1298SOL     OW 3955   2.632   3.192   2.163
 1298SOL    HW1 3956   2.586   3.105   2.180
 1298SOL    HW2 3957   2.723   3.189   2.204
 1299SOL     OW 3958   2.480   3.429   3.146
 1299SOL    HW1 3959   2.475   3.511   3.203
 1299SOL    HW2 3960   2.569   3.426   3.101
 1300SOL     OW 3961   3.214   1.914   2.030
 1300SOL    HW1 3962   3.249   1.873   1.946
 1300SOL    HW2 3963   3.124   1.876   2.050
 1301SOL     OW 3964   3.162   2.315   2.553
 1301SOL    HW1 3965   3.103   2.395   2.557
 1301SOL    HW2 3966   3.177   2.280   2.646
 1302SOL     OW 3967   3.455   2.083   2.744
 1302SOL    HW1 3968   3.371   2.082   2.798
 1302SOL    HW2 3969   3.457   2.166   2.688
 1303SOL     OW 3970   1.901   2.939   2.162
 1303SOL    HW1 3971   2.000   2.928   2.153
 1303SOL    HW2 3972   1.861   2.853   2.194
 1304H2O2    O1 3973   0.918   3.349   3.142
 1304H2O2    O2 3974   0.849   3.219   3.128
 1304H2O2    H1 3975   0.943   3.360   3.233
 1304H2O2    H2 3976   0.847   3.178   3.213
   3.44682   3.44682   3.44682
