11112
    1UNL      C    1   2.787   2.549   2.377
    1UNL     C1    2   2.844   2.422   2.440
    1UNL     C2    3   2.637   2.566   2.407
    1UNL     C3    4   2.758   2.302   2.399
    1UNL     C4    5   2.561   2.436   2.377
    1UNL     C5    6   2.806   2.172   2.464
    1UNL     C6    7   2.344   2.344   2.376
    1UNL     C7    8   2.205   2.370   2.424
    1UNL     C8    9   2.098   2.379   2.343
    1UNL     C9   10   1.960   2.401   2.387
    1UNL    C10   11   1.928   2.470   2.505
    1UNL    C11   12   1.855   2.356   2.305
    1UNL    C12   13   1.794   2.491   2.541
    1UNL    C13   14   1.721   2.377   2.341
    1UNL    C14   15   1.691   2.444   2.460
    1UNL      O   16   2.622   2.323   2.440
    1UNL     O1   17   2.427   2.448   2.425
    1UNL     O2   18   2.859   2.664   2.421
    1UNL     O3   19   2.980   2.408   2.400
    1UNL     O4   20   2.584   2.672   2.325
    1UNL     O5   21   2.722   2.065   2.420
    1UNL      H   22   2.802   2.546   2.268
    1UNL     H1   23   2.844   2.433   2.550
    1UNL     H2   24   2.623   2.596   2.512
    1UNL     H3   25   2.760   2.288   2.290
    1UNL     H4   26   2.558   2.421   2.268
    1UNL     H5   27   2.798   2.177   2.573
    1UNL     H6   28   2.909   2.149   2.436
    1UNL     H7   29   2.952   2.635   2.435
    1UNL     H8   30   2.984   2.391   2.304
    1UNL     H9   31   2.659   2.728   2.298
    1UNL    H10   32   2.378   2.247   2.416
    1UNL    H11   33   2.348   2.340   2.267
    1UNL    H12   34   2.631   2.092   2.442
    1UNL    H13   35   2.194   2.379   2.532
    1UNL    H14   36   2.112   2.367   2.235
    1UNL    H15   37   2.006   2.509   2.569
    1UNL    H16   38   1.877   2.304   2.212
    1UNL    H17   39   1.771   2.543   2.634
    1UNL    H18   40   1.642   2.341   2.277
    1UNL    H19   41   1.588   2.460   2.488
    2SOL     OW   42   0.230   0.628   0.113
    2SOL    HW1   43   0.137   0.626   0.150
    2SOL    HW2   44   0.231   0.589   0.021
    3SOL     OW   45   0.225   0.275   0.996
    3SOL    HW1   46   0.260   0.258   1.088
    3SOL    HW2   47   0.137   0.230   0.984
    4SOL     OW   48   0.019   0.368   0.647
    4SOL    HW1   49  -0.063   0.411   0.686
    4SOL    HW2   50  -0.009   0.295   0.584
    5SOL     OW   51   0.569   1.275   1.165
    5SOL    HW1   52   0.476   1.268   1.128
    5SOL    HW2   53   0.580   1.364   1.209
    6SOL     OW   54   1.555   1.511   0.703
    6SOL    HW1   55   1.498   1.495   0.784
    6SOL    HW2   56   1.496   1.521   0.623
    7SOL     OW   57   1.135   0.703   0.717
    7SOL    HW1   58   1.192   0.781   0.692
    7SOL    HW2   59   1.075   0.729   0.793
    8SOL     OW   60   1.755   0.607   0.231
    8SOL    HW1   61   1.743   0.594   0.132
    8SOL    HW2   62   1.725   0.526   0.280
    9SOL     OW   63   0.768   1.144   1.023
    9SOL    HW1   64   0.690   1.161   1.083
    9SOL    HW2   65   0.802   1.231   0.987
   10SOL     OW   66   0.850   0.798   1.823
   10SOL    HW1   67   0.846   0.874   1.888
   10SOL    HW2   68   0.872   0.834   1.732
   11SOL     OW   69   0.685   1.012   0.665
   11SOL    HW1   70   0.754   0.996   0.735
   11SOL    HW2   71   0.612   1.069   0.703
   12SOL     OW   72   0.686   1.161   1.803
   12SOL    HW1   73   0.746   1.240   1.817
   12SOL    HW2   74   0.600   1.192   1.762
   13SOL     OW   75   0.335   1.435   1.061
   13SOL    HW1   76   0.257   1.404   1.008
   13SOL    HW2   77   0.393   1.493   1.004
   14SOL     OW   78   1.460   1.505   1.339
   14SOL    HW1   79   1.484   1.599   1.365
   14SOL    HW2   80   1.444   1.451   1.421
   15SOL     OW   81   0.438   0.392   1.499
   15SOL    HW1   82   0.520   0.336   1.508
   15SOL    HW2   83   0.357   0.334   1.503
   16SOL     OW   84   1.603   0.447   0.737
   16SOL    HW1   85   1.529   0.493   0.687
   16SOL    HW2   86   1.654   0.515   0.790
   17SOL     OW   87   0.231   1.713   0.483
   17SOL    HW1   88   0.265   1.790   0.537
   17SOL    HW2   89   0.275   1.713   0.393
   18SOL     OW   90   1.127   1.341   1.690
   18SOL    HW1   91   1.174   1.341   1.778
   18SOL    HW2   92   1.079   1.254   1.679
   19SOL     OW   93   0.230   1.434   0.538
   19SOL    HW1   94   0.204   1.530   0.538
   19SOL    HW2   95   0.159   1.380   0.583
   20SOL     OW   96   0.240   1.091   0.886
   20SOL    HW1   97   0.254   1.007   0.938
   20SOL    HW2   98   0.185   1.155   0.941
   21SOL     OW   99   0.620   1.786   1.439
   21SOL    HW1  100   0.528   1.769   1.474
   21SOL    HW2  101   0.648   1.878   1.465
   22SOL     OW  102   0.606   0.964   0.123
   22SOL    HW1  103   0.613   1.048   0.069
   22SOL    HW2  104   0.652   0.977   0.211
   23SOL     OW  105   1.594   0.114   1.480
   23SOL    HW1  106   1.576   0.181   1.408
   23SOL    HW2  107   1.591   0.160   1.569
   24SOL     OW  108   0.122   0.643   0.563
   24SOL    HW1  109   0.077   0.555   0.580
   24SOL    HW2  110   0.121   0.697   0.647
   25SOL     OW  111   1.842   1.767   0.359
   25SOL    HW1  112   1.896   1.738   0.439
   25SOL    HW2  113   1.872   1.857   0.330
   26SOL     OW  114   0.027   1.596   0.117
   26SOL    HW1  115   0.008   1.500   0.138
   26SOL    HW2  116  -0.006   1.654   0.192
   27SOL     OW  117   1.689   0.922   0.612
   27SOL    HW1  118   1.784   0.893   0.620
   27SOL    HW2  119   1.681   0.987   0.537
   28SOL     OW  120   1.641   1.108   0.432
   28SOL    HW1  121   1.727   1.110   0.380
   28SOL    HW2  122   1.655   1.155   0.520
   29SOL     OW  123   0.113   0.737   1.597
   29SOL    HW1  124   0.201   0.724   1.642
   29SOL    HW2  125   0.100   0.834   1.575
   30SOL     OW  126   0.613   1.365   0.726
   30SOL    HW1  127   0.564   1.278   0.735
   30SOL    HW2  128   0.590   1.408   0.639
   31SOL     OW  129   1.293   1.228   1.423
   31SOL    HW1  130   1.330   1.155   1.365
   31SOL    HW2  131   1.345   1.233   1.508
   32SOL     OW  132   0.809   0.004   0.502
   32SOL    HW1  133   0.849   0.095   0.493
   32SOL    HW2  134   0.709   0.012   0.508
   33SOL     OW  135   0.197   0.976   1.264
   33SOL    HW1  136   0.286   0.931   1.250
   33SOL    HW2  137   0.124   0.911   1.245
   34SOL     OW  138   1.525   0.999   0.190
   34SOL    HW1  139   1.462   0.923   0.203
   34SOL    HW2  140   1.573   1.017   0.276
   35SOL     OW  141   1.187   1.792   1.616
   35SOL    HW1  142   1.211   1.852   1.540
   35SOL    HW2  143   1.194   1.697   1.586
   36SOL     OW  144   0.317   0.251   1.801
   36SOL    HW1  145   0.388   0.322   1.807
   36SOL    HW2  146   0.229   0.290   1.829
   37SOL     OW  147   1.466   1.417   0.953
   37SOL    HW1  148   1.407   1.423   1.033
   37SOL    HW2  149   1.451   1.329   0.907
   38SOL     OW  150   1.667   1.714   0.572
   38SOL    HW1  151   1.626   1.691   0.484
   38SOL    HW2  152   1.649   1.640   0.637
   39SOL     OW  153   0.598   0.729   0.270
   39SOL    HW1  154   0.622   0.798   0.202
   39SOL    HW2  155   0.520   0.762   0.324
   40SOL     OW  156   1.281   0.345   0.944
   40SOL    HW1  157   1.195   0.295   0.931
   40SOL    HW2  158   1.343   0.291   1.000
   41SOL     OW  159   1.576   1.662   0.307
   41SOL    HW1  160   1.665   1.708   0.310
   41SOL    HW2  161   1.555   1.638   0.212
   42SOL     OW  162   0.807   0.605   1.465
   42SOL    HW1  163   0.760   0.602   1.554
   42SOL    HW2  164   0.756   0.550   1.399
   43SOL     OW  165   1.394   0.469   1.674
   43SOL    HW1  166   1.374   0.512   1.762
   43SOL    HW2  167   1.472   0.407   1.683
   44SOL     OW  168   0.973   0.890   1.572
   44SOL    HW1  169   1.019   0.806   1.543
   44SOL    HW2  170   0.917   0.924   1.497
   45SOL     OW  171   0.991   0.410   1.242
   45SOL    HW1  172   0.914   0.444   1.296
   45SOL    HW2  173   0.957   0.359   1.163
   46SOL     OW  174   1.041   0.701   0.429
   46SOL    HW1  175   1.067   0.697   0.525
   46SOL    HW2  176   0.956   0.650   0.415
   47SOL     OW  177   0.076   0.811   0.789
   47SOL    HW1  178   0.175   0.799   0.798
   47SOL    HW2  179   0.052   0.906   0.810
   48SOL     OW  180   0.130   1.821   1.571
   48SOL    HW1  181   0.120   1.806   1.670
   48SOL    HW2  182   0.044   1.857   1.535
   49SOL     OW  183   0.865   0.348   0.195
   49SOL    HW1  184   0.924   0.411   0.146
   49SOL    HW2  185   0.884   0.254   0.166
   50SOL     OW  186   1.719   0.585   1.831
   50SOL    HW1  187   1.693   0.674   1.795
   50SOL    HW2  188   1.717   0.517   1.758
   51SOL     OW  189   1.362   1.144   0.545
   51SOL    HW1  190   1.445   1.115   0.497
   51SOL    HW2  191   1.313   1.211   0.489
   52SOL     OW  192   0.550   0.196   0.885
   52SOL    HW1  193   0.545   0.191   0.985
   52SOL    HW2  194   0.552   0.292   0.856
   53SOL     OW  195   1.008   1.456   0.477
   53SOL    HW1  196   0.962   1.528   0.425
   53SOL    HW2  197   1.004   1.476   0.575
   54SOL     OW  198   0.351   1.801   0.853
   54SOL    HW1  199   0.401   1.715   0.859
   54SOL    HW2  200   0.416   1.878   0.850
   55SOL     OW  201   1.795   1.066   0.873
   55SOL    HW1  202   1.733   1.051   0.797
   55SOL    HW2  203   1.743   1.077   0.958
   56SOL     OW  204   1.227   1.550   1.506
   56SOL    HW1  205   1.233   1.473   1.570
   56SOL    HW2  206   1.175   1.524   1.426
   57SOL     OW  207   0.321   0.943   0.242
   57SOL    HW1  208   0.403   0.982   0.200
   57SOL    HW2  209   0.294   0.861   0.193
   58SOL     OW  210   1.458   0.735   0.728
   58SOL    HW1  211   1.453   0.670   0.803
   58SOL    HW2  212   1.538   0.794   0.741
   59SOL     OW  213   0.461   1.266   1.727
   59SOL    HW1  214   0.411   1.267   1.641
   59SOL    HW2  215   0.398   1.248   1.803
   60SOL     OW  216   1.111   1.776   0.237
   60SOL    HW1  217   1.051   1.714   0.287
   60SOL    HW2  218   1.142   1.732   0.152
   61SOL     OW  219   0.202   0.285   1.498
   61SOL    HW1  220   0.122   0.345   1.485
   61SOL    HW2  221   0.192   0.236   1.584
   62SOL     OW  222   1.632   1.377   0.081
   62SOL    HW1  223   1.600   1.471   0.071
   62SOL    HW2  224   1.556   1.314   0.069
   63SOL     OW  225   0.464   1.743   0.323
   63SOL    HW1  226   0.497   1.782   0.409
   63SOL    HW2  227   0.540   1.736   0.258
   64SOL     OW  228   1.400   0.107   0.426
   64SOL    HW1  229   1.376   0.070   0.336
   64SOL    HW2  230   1.499   0.123   0.430
   65SOL     OW  231   0.249   1.785   1.241
   65SOL    HW1  232   0.306   1.720   1.291
   65SOL    HW2  233   0.233   1.752   1.148
   66SOL     OW  234   0.940   1.698   0.904
   66SOL    HW1  235   1.020   1.641   0.925
   66SOL    HW2  236   0.891   1.658   0.827
   67SOL     OW  237   0.382   0.700   0.480
   67SOL    HW1  238   0.427   0.610   0.477
   67SOL    HW2  239   0.288   0.689   0.513
   68SOL     OW  240   1.547   0.222   1.729
   68SOL    HW1  241   1.542   0.259   1.821
   68SOL    HW2  242   1.475   0.153   1.717
   69SOL     OW  243   0.614   0.122   0.117
   69SOL    HW1  244   0.712   0.100   0.124
   69SOL    HW2  245   0.583   0.105   0.024
   70SOL     OW  246   0.781   0.264   1.749
   70SOL    HW1  247   0.848   0.203   1.792
   70SOL    HW2  248   0.708   0.283   1.814
   71SOL     OW  249   0.888   1.514   1.195
   71SOL    HW1  250   0.865   1.489   1.101
   71SOL    HW2  251   0.949   1.445   1.234
   72SOL     OW  252   1.351   0.590   1.433
   72SOL    HW1  253   1.379   0.547   1.518
   72SOL    HW2  254   1.376   0.686   1.434
   73SOL     OW  255   0.803   1.402   0.924
   73SOL    HW1  256   0.893   1.416   0.882
   73SOL    HW2  257   0.732   1.404   0.853
   74SOL     OW  258   0.922   0.503   0.899
   74SOL    HW1  259   0.897   0.494   0.803
   74SOL    HW2  260   0.970   0.421   0.930
   75SOL     OW  261   0.539   0.064   0.512
   75SOL    HW1  262   0.458   0.065   0.570
   75SOL    HW2  263   0.542   0.147   0.457
   76SOL     OW  264   1.434   1.188   0.041
   76SOL    HW1  265   1.466   1.112   0.098
   76SOL    HW2  266   1.342   1.215   0.071
   77SOL     OW  267   0.297   0.035   0.171
   77SOL    HW1  268   0.346   0.119   0.150
   77SOL    HW2  269   0.359  -0.030   0.216
   78SOL     OW  270   0.935   0.236   0.480
   78SOL    HW1  271   0.887   0.277   0.402
   78SOL    HW2  272   1.034   0.234   0.461
   79SOL     OW  273   1.076   0.683   1.464
   79SOL    HW1  274   0.996   0.622   1.467
   79SOL    HW2  275   1.157   0.630   1.440
   80SOL     OW  276   1.227   1.570   0.793
   80SOL    HW1  277   1.248   1.644   0.728
   80SOL    HW2  278   1.295   1.570   0.866
   81SOL     OW  279   0.459   1.152   0.741
   81SOL    HW1  280   0.388   1.125   0.806
   81SOL    HW2  281   0.433   1.124   0.648
   82SOL     OW  282   1.271   1.797   0.591
   82SOL    HW1  283   1.315   1.861   0.527
   82SOL    HW2  284   1.221   1.849   0.661
   83SOL     OW  285   1.032   0.549   0.016
   83SOL    HW1  286   0.991   0.631  -0.023
   83SOL    HW2  287   1.096   0.575   0.089
   84SOL     OW  288   0.078   0.556   1.386
   84SOL    HW1  289   0.170   0.555   1.345
   84SOL    HW2  290   0.072   0.630   1.453
   85SOL     OW  291   0.561   0.222   1.147
   85SOL    HW1  292   0.599   0.138   1.184
   85SOL    HW2  293   0.473   0.241   1.191
   86SOL     OW  294   0.866   0.454   0.642
   86SOL    HW1  295   0.834   0.526   0.580
   86SOL    HW2  296   0.890   0.373   0.589
   87SOL     OW  297   1.017   0.039   0.753
   87SOL    HW1  298   0.945   0.044   0.684
   87SOL    HW2  299   0.993  -0.030   0.822
   88SOL     OW  300   1.429   1.173   0.867
   88SOL    HW1  301   1.374   1.089   0.860
   88SOL    HW2  302   1.455   1.202   0.775
   89SOL     OW  303   1.466   0.590   0.992
   89SOL    HW1  304   1.436   0.495   0.999
   89SOL    HW2  305   1.539   0.606   1.058
   90SOL     OW  306   1.857   0.833   0.377
   90SOL    HW1  307   1.899   0.769   0.441
   90SOL    HW2  308   1.819   0.782   0.299
   91SOL     OW  309   0.488   1.385   0.174
   91SOL    HW1  310   0.401   1.370   0.221
   91SOL    HW2  311   0.471   1.411   0.079
   92SOL     OW  312   1.664   1.280   0.657
   92SOL    HW1  313   1.763   1.288   0.671
   92SOL    HW2  314   1.619   1.364   0.688
   93SOL     OW  315   1.390   0.575   0.078
   93SOL    HW1  316   1.336   0.554   0.159
   93SOL    HW2  317   1.481   0.534   0.087
   94SOL     OW  318   0.527   0.256   0.328
   94SOL    HW1  319   0.554   0.197   0.253
   94SOL    HW2  320   0.527   0.351   0.297
   95SOL     OW  321   1.754   1.223   1.588
   95SOL    HW1  322   1.845   1.184   1.575
   95SOL    HW2  323   1.762   1.319   1.612
   96SOL     OW  324   1.064   1.347   1.340
   96SOL    HW1  325   0.984   1.324   1.395
   96SOL    HW2  326   1.147   1.321   1.389
   97SOL     OW  327   1.592   1.629   1.625
   97SOL    HW1  328   1.619   1.663   1.535
   97SOL    HW2  329   1.671   1.591   1.671
   98SOL     OW  330   1.111   1.195   1.100
   98SOL    HW1  331   1.071   1.239   1.181
   98SOL    HW2  332   1.070   1.232   1.017
   99SOL     OW  333   1.638   1.099   1.079
   99SOL    HW1  334   1.643   1.180   1.138
   99SOL    HW2  335   1.552   1.101   1.028
  100SOL     OW  336   0.915   0.089   1.402
  100SOL    HW1  337   0.940   0.069   1.307
  100SOL    HW2  338   0.987   0.145   1.444
  101SOL     OW  339   0.980   1.116   1.719
  101SOL    HW1  340   0.881   1.122   1.729
  101SOL    HW2  341   1.003   1.036   1.663
  102SOL     OW  342   0.705   1.050   0.368
  102SOL    HW1  343   0.691   1.057   0.467
  102SOL    HW2  344   0.789   0.999   0.350
  103SOL     OW  345   0.410   0.813   1.251
  103SOL    HW1  346   0.496   0.825   1.301
  103SOL    HW2  347   0.368   0.726   1.278
  104SOL     OW  348   1.274   0.386   1.262
  104SOL    HW1  349   1.295   0.460   1.326
  104SOL    HW2  350   1.185   0.403   1.219
  105SOL     OW  351   0.064   1.564   1.331
  105SOL    HW1  352   0.018   1.646   1.297
  105SOL    HW2  353   0.162   1.583   1.340
  106SOL     OW  354   0.367   1.100   0.501
  106SOL    HW1  355   0.360   1.183   0.445
  106SOL    HW2  356   0.371   1.020   0.441
  107SOL     OW  357   0.566   0.537   0.865
  107SOL    HW1  358   0.578   0.603   0.791
  107SOL    HW2  359   0.612   0.571   0.948
  108SOL     OW  360   1.252   1.348   0.388
  108SOL    HW1  361   1.302   1.425   0.428
  108SOL    HW2  362   1.157   1.350   0.420
  109SOL     OW  363   1.272   1.445   1.142
  109SOL    HW1  364   1.319   1.458   1.229
  109SOL    HW2  365   1.206   1.371   1.151
  110SOL     OW  366   1.582   0.639   0.472
  110SOL    HW1  367   1.551   0.700   0.545
  110SOL    HW2  368   1.632   0.691   0.403
  111SOL     OW  369   0.354   1.510   1.329
  111SOL    HW1  370   0.333   1.466   1.242
  111SOL    HW2  371   0.451   1.536   1.332
  112SOL     OW  372   0.402   0.751   1.598
  112SOL    HW1  373   0.470   0.806   1.551
  112SOL    HW2  374   0.442   0.663   1.625
  113SOL     OW  375   1.587   0.779   1.670
  113SOL    HW1  376   1.495   0.817   1.665
  113SOL    HW2  377   1.647   0.826   1.605
  114SOL     OW  378   1.013   0.105   1.770
  114SOL    HW1  379   1.019   0.190   1.718
  114SOL    HW2  380   1.045   0.029   1.713
  115SOL     OW  381   0.504   0.050   1.740
  115SOL    HW1  382   0.462  -0.007   1.670
  115SOL    HW2  383   0.438   0.119   1.772
  116SOL     OW  384   0.573   0.870   1.029
  116SOL    HW1  385   0.617   0.959   1.020
  116SOL    HW2  386   0.510   0.870   1.106
  117SOL     OW  387   1.360   0.862   1.045
  117SOL    HW1  388   1.285   0.862   0.979
  117SOL    HW2  389   1.397   0.770   1.054
  118SOL     OW  390   1.209   0.525   0.275
  118SOL    HW1  391   1.222   0.441   0.329
  118SOL    HW2  392   1.180   0.599   0.335
  119SOL     OW  393   0.307   0.213   1.231
  119SOL    HW1  394   0.284   0.250   1.321
  119SOL    HW2  395   0.277   0.118   1.225
  120SOL     OW  396   0.037   1.310   1.282
  120SOL    HW1  397   0.090   1.261   1.350
  120SOL    HW2  398   0.059   1.408   1.287
  121SOL     OW  399   0.732   0.634   1.064
  121SOL    HW1  400   0.791   0.608   0.988
  121SOL    HW2  401   0.704   0.730   1.053
  122SOL     OW  402   1.728   0.935   1.854
  122SOL    HW1  403   1.682   0.928   1.765
  122SOL    HW2  404   1.666   0.979   1.920
  123SOL     OW  405   0.307   0.063   0.618
  123SOL    HW1  406   0.296   0.157   0.651
  123SOL    HW2  407   0.302   0.000   0.695
  124SOL     OW  408   1.622   0.367   0.374
  124SOL    HW1  409   1.624   0.291   0.438
  124SOL    HW2  410   1.574   0.444   0.414
  125SOL     OW  411   1.023   0.766   0.966
  125SOL    HW1  412   1.038   0.787   1.062
  125SOL    HW2  413   0.993   0.671   0.957
  126SOL     OW  414   0.980   1.573   1.700
  126SOL    HW1  415   0.960   1.617   1.612
  126SOL    HW2  416   1.019   1.482   1.684
  127SOL     OW  417   1.859   1.518   1.605
  127SOL    HW1  418   1.873   1.545   1.510
  127SOL    HW2  419   1.942   1.540   1.658
  128SOL     OW  420   0.350   0.898   1.804
  128SOL    HW1  421   0.426   0.942   1.852
  128SOL    HW2  422   0.385   0.851   1.722
  129SOL     OW  423   1.540   0.274   0.125
  129SOL    HW1  424   1.479   0.199   0.148
  129SOL    HW2  425   1.562   0.326   0.208
  130SOL     OW  426   1.303   0.838   0.042
  130SOL    HW1  427   1.337   0.745   0.057
  130SOL    HW2  428   1.321   0.865  -0.053
  131SOL     OW  429   1.068   1.333   0.849
  131SOL    HW1  430   1.075   1.249   0.794
  131SOL    HW2  431   1.130   1.402   0.813
  132SOL     OW  432   0.319   0.810   0.949
  132SOL    HW1  433   0.412   0.846   0.954
  132SOL    HW2  434   0.313   0.725   1.001
  133SOL     OW  435   0.339   0.509   1.006
  133SOL    HW1  436   0.287   0.426   0.989
  133SOL    HW2  437   0.416   0.514   0.942
  134SOL     OW  438   1.138   0.380   1.678
  134SOL    HW1  439   1.093   0.443   1.742
  134SOL    HW2  440   1.231   0.411   1.661
  135SOL     OW  441   1.160   0.207   1.477
  135SOL    HW1  442   1.160   0.271   1.554
  135SOL    HW2  443   1.188   0.255   1.394
  136SOL     OW  444   0.008   1.326   0.200
  136SOL    HW1  445  -0.085   1.347   0.169
  136SOL    HW2  446   0.018   1.227   0.213
  137SOL     OW  447   0.088   1.801   0.927
  137SOL    HW1  448   0.046   1.715   0.900
  137SOL    HW2  449   0.182   1.804   0.893
  138SOL     OW  450   0.504   1.568   0.910
  138SOL    HW1  451   0.570   1.642   0.919
  138SOL    HW2  452   0.548   1.489   0.868
  139SOL     OW  453   1.002   0.796   1.238
  139SOL    HW1  454   1.043   0.764   1.324
  139SOL    HW2  455   0.906   0.769   1.235
  140SOL     OW  456   0.040   0.544   1.114
  140SOL    HW1  457   0.125   0.511   1.073
  140SOL    HW2  458   0.053   0.559   1.212
  141SOL     OW  459   0.189   0.520   1.722
  141SOL    HW1  460   0.248   0.480   1.652
  141SOL    HW2  461   0.131   0.591   1.681
  142SOL     OW  462   1.369   0.950   1.660
  142SOL    HW1  463   1.408   1.039   1.680
  142SOL    HW2  464   1.379   0.930   1.563
  143SOL     OW  465   0.815   0.572   0.325
  143SOL    HW1  466   0.822   0.483   0.279
  143SOL    HW2  467   0.721   0.606   0.317
  144SOL     OW  468   1.657   0.604   1.206
  144SOL    HW1  469   1.619   0.535   1.268
  144SOL    HW2  470   1.739   0.568   1.162
  145SOL     OW  471   0.252   1.564   1.744
  145SOL    HW1  472   0.222   1.621   1.820
  145SOL    HW2  473   0.245   1.467   1.770
  146SOL     OW  474   0.671   0.464   1.269
  146SOL    HW1  475   0.637   0.375   1.239
  146SOL    HW2  476   0.697   0.518   1.189
  147SOL     OW  477   0.930   1.678   1.465
  147SOL    HW1  478   0.906   1.660   1.370
  147SOL    HW2  479   0.960   1.772   1.475
  148SOL     OW  480   0.473   0.500   0.191
  148SOL    HW1  481   0.534   0.580   0.195
  148SOL    HW2  482   0.378   0.531   0.198
  149SOL     OW  483   0.159   1.137   1.466
  149SOL    HW1  484   0.181   1.076   1.542
  149SOL    HW2  485   0.169   1.088   1.380
  150SOL     OW  486   1.347   1.059   1.234
  150SOL    HW1  487   1.371   0.996   1.160
  150SOL    HW2  488   1.257   1.099   1.216
  151SOL     OW  489   1.302   0.855   0.309
  151SOL    HW1  490   1.216   0.824   0.351
  151SOL    HW2  491   1.298   0.841   0.210
  152SOL     OW  492   1.759   1.747   1.154
  152SOL    HW1  493   1.820   1.777   1.081
  152SOL    HW2  494   1.721   1.658   1.132
  153SOL     OW  495   1.252   1.731   1.128
  153SOL    HW1  496   1.336   1.736   1.074
  153SOL    HW2  497   1.229   1.635   1.146
  154SOL     OW  498   0.083   1.258   1.022
  154SOL    HW1  499   0.078   1.257   1.122
  154SOL    HW2  500   0.000   1.217   0.984
  155SOL     OW  501   0.688   1.662   1.716
  155SOL    HW1  502   0.632   1.743   1.725
  155SOL    HW2  503   0.740   1.666   1.630
  156SOL     OW  504   0.903   0.086   0.133
  156SOL    HW1  505   0.954   0.087   0.047
  156SOL    HW2  506   0.959   0.044   0.204
  157SOL     OW  507   1.726   0.135   0.523
  157SOL    HW1  508   1.799   0.118   0.456
  157SOL    HW2  509   1.695   0.048   0.561
  158SOL     OW  510   1.388   1.573   0.477
  158SOL    HW1  511   1.455   1.585   0.403
  158SOL    HW2  512   1.348   1.662   0.500
  159SOL     OW  513   0.130   1.794   1.851
  159SOL    HW1  514   0.089   1.720   1.904
  159SOL    HW2  515   0.194   1.845   1.909
  160SOL     OW  516   1.280   0.927   0.672
  160SOL    HW1  517   1.340   0.846   0.674
  160SOL    HW2  518   1.320   0.996   0.612
  161SOL     OW  519   0.830   1.273   1.422
  161SOL    HW1  520   0.825   1.306   1.517
  161SOL    HW2  521   0.744   1.292   1.376
  162SOL     OW  522   0.672   1.616   0.154
  162SOL    HW1  523   0.681   1.626   0.055
  162SOL    HW2  524   0.632   1.527   0.175
  163SOL     OW  525   1.650   1.720   1.394
  163SOL    HW1  526   1.703   1.730   1.310
  163SOL    HW2  527   1.623   1.810   1.428
  164SOL     OW  528   1.841   0.175   0.963
  164SOL    HW1  529   1.880   0.090   0.927
  164SOL    HW2  530   1.743   0.177   0.944
  165SOL     OW  531   0.263   0.326   0.720
  165SOL    HW1  532   0.184   0.377   0.686
  165SOL    HW2  533   0.254   0.311   0.818
  166SOL     OW  534   1.194   1.612   0.031
  166SOL    HW1  535   1.200   1.519   0.068
  166SOL    HW2  536   1.135   1.612  -0.049
  167SOL     OW  537   0.822   1.002   1.372
  167SOL    HW1  538   0.862   1.001   1.280
  167SOL    HW2  539   0.832   1.094   1.412
  168SOL     OW  540   0.916   0.910   0.291
  168SOL    HW1  541   0.979   0.948   0.223
  168SOL    HW2  542   0.956   0.827   0.330
  169SOL     OW  543   1.504   1.607   0.044
  169SOL    HW1  544   1.412   1.644   0.051
  169SOL    HW2  545   1.542   1.627  -0.046
  170SOL     OW  546   0.372   1.288   1.490
  170SOL    HW1  547   0.359   1.381   1.456
  170SOL    HW2  548   0.288   1.236   1.477
  171SOL     OW  549   1.614   1.292   1.289
  171SOL    HW1  550   1.674   1.295   1.369
  171SOL    HW2  551   1.539   1.356   1.302
  172SOL     OW  552   1.039   1.098   0.696
  172SOL    HW1  553   0.969   1.051   0.750
  172SOL    HW2  554   1.098   1.030   0.653
  173SOL     OW  555   1.014   0.236   0.971
  173SOL    HW1  556   1.006   0.200   0.878
  173SOL    HW2  557   1.012   0.160   1.036
  174SOL     OW  558   0.590   1.487   0.491
  174SOL    HW1  559   0.632   1.429   0.421
  174SOL    HW2  560   0.546   1.566   0.447
  175SOL     OW  561   1.709   0.385   1.381
  175SOL    HW1  562   1.782   0.454   1.385
  175SOL    HW2  563   1.737   0.310   1.322
  176SOL     OW  564   0.255   1.348   0.290
  176SOL    HW1  565   0.159   1.349   0.263
  176SOL    HW2  566   0.267   1.401   0.374
  177SOL     OW  567   0.105   1.013   1.726
  177SOL    HW1  568   0.028   0.980   1.780
  177SOL    HW2  569   0.190   0.983   1.768
  178SOL     OW  570   0.672   0.203   1.489
  178SOL    HW1  571   0.762   0.187   1.449
  178SOL    HW2  572   0.680   0.208   1.588
  179SOL     OW  573   0.075   0.345   0.033
  179SOL    HW1  574  -0.017   0.317   0.004
  179SOL    HW2  575   0.106   0.422  -0.023
  180SOL     OW  576   1.440   0.856   1.398
  180SOL    HW1  577   1.383   0.908   1.335
  180SOL    HW2  578   1.536   0.868   1.374
  181SOL     OW  579   0.072   0.166   0.318
  181SOL    HW1  580   0.055   0.249   0.264
  181SOL    HW2  581   0.162   0.129   0.296
  182SOL     OW  582   1.183   1.335   0.119
  182SOL    HW1  583   1.084   1.324   0.121
  182SOL    HW2  584   1.217   1.350   0.212
  183SOL     OW  585   0.613   0.842   1.431
  183SOL    HW1  586   0.669   0.923   1.414
  183SOL    HW2  587   0.672   0.762   1.434
  184SOL     OW  588   1.493   1.767   0.959
  184SOL    HW1  589   1.526   1.831   0.890
  184SOL    HW2  590   1.559   1.761   1.034
  185SOL     OW  591   0.716   0.565   1.708
  185SOL    HW1  592   0.735   0.630   1.782
  185SOL    HW2  593   0.776   0.485   1.717
  186SOL     OW  594   1.450   1.220   1.633
  186SOL    HW1  595   1.441   1.210   1.732
  186SOL    HW2  596   1.546   1.213   1.607
  187SOL     OW  597   0.390   1.741   1.560
  187SOL    HW1  598   0.299   1.782   1.558
  187SOL    HW2  599   0.383   1.647   1.592
  188SOL     OW  600   1.674   0.883   1.254
  188SOL    HW1  601   1.647   0.794   1.217
  188SOL    HW2  602   1.675   0.951   1.181
  189SOL     OW  603   1.225   0.325   0.449
  189SOL    HW1  604   1.290   0.251   0.438
  189SOL    HW2  605   1.245   0.375   0.533
  190SOL     OW  606   0.594   0.745   0.652
  190SOL    HW1  607   0.644   0.830   0.633
  190SOL    HW2  608   0.506   0.747   0.604
  191SOL     OW  609   1.777   0.342   1.642
  191SOL    HW1  610   1.760   0.373   1.548
  191SOL    HW2  611   1.693   0.305   1.680
  192SOL     OW  612   1.730   0.934   1.517
  192SOL    HW1  613   1.768   1.025   1.532
  192SOL    HW2  614   1.722   0.917   1.418
  193SOL     OW  615   0.859   1.374   0.016
  193SOL    HW1  616   0.813   1.389   0.104
  193SOL    HW2  617   0.903   1.459  -0.014
  194SOL     OW  618   0.661   1.790   0.953
  194SOL    HW1  619   0.615   1.878   0.940
  194SOL    HW2  620   0.760   1.802   0.946
  195SOL     OW  621   0.859   0.956   0.861
  195SOL    HW1  622   0.913   0.887   0.909
  195SOL    HW2  623   0.827   1.025   0.927
  196SOL     OW  624   1.083   0.984   0.087
  196SOL    HW1  625   1.060   1.037   0.005
  196SOL    HW2  626   1.164   0.928   0.068
  197SOL     OW  627   1.861   1.569   0.851
  197SOL    HW1  628   1.790   1.557   0.781
  197SOL    HW2  629   1.862   1.490   0.911
  198SOL     OW  630   0.221   1.314   1.844
  198SOL    HW1  631   0.156   1.241   1.823
  198SOL    HW2  632   0.225   1.328   1.942
  199SOL     OW  633   0.079   1.240   0.653
  199SOL    HW1  634   0.078   1.193   0.741
  199SOL    HW2  635   0.161   1.212   0.602
  200SOL     OW  636   0.672   1.391   1.624
  200SOL    HW1  637   0.594   1.341   1.662
  200SOL    HW2  638   0.669   1.486   1.655
  201SOL     OW  639   1.824   0.192   1.227
  201SOL    HW1  640   1.820   0.102   1.271
  201SOL    HW2  641   1.827   0.181   1.128
  202SOL     OW  642   0.428   0.424   0.520
  202SOL    HW1  643   0.458   0.352   0.458
  202SOL    HW2  644   0.389   0.384   0.603
  203SOL     OW  645   1.705   1.487   1.104
  203SOL    HW1  646   1.612   1.462   1.077
  203SOL    HW2  647   1.731   1.437   1.186
  204SOL     OW  648   0.317   0.547   1.280
  204SOL    HW1  649   0.355   0.488   1.352
  204SOL    HW2  650   0.357   0.521   1.192
  205SOL     OW  651   0.812   1.586   0.687
  205SOL    HW1  652   0.844   1.596   0.593
  205SOL    HW2  653   0.733   1.524   0.689
  206SOL     OW  654   1.424   0.214   1.112
  206SOL    HW1  655   1.476   0.149   1.167
  206SOL    HW2  656   1.375   0.277   1.173
  207SOL     OW  657   1.001   0.034   1.154
  207SOL    HW1  658   0.938  -0.038   1.123
  207SOL    HW2  659   1.094  -0.002   1.154
  208SOL     OW  660   0.770   1.330   0.301
  208SOL    HW1  661   0.724   1.243   0.318
  208SOL    HW2  662   0.861   1.327   0.342
  209SOL     OW  663   0.618   1.567   1.284
  209SOL    HW1  664   0.613   1.649   1.341
  209SOL    HW2  665   0.707   1.564   1.239
  210SOL     OW  666   1.352   0.052   0.168
  210SOL    HW1  667   1.387   0.011   0.084
  210SOL    HW2  668   1.262   0.014   0.188
  211SOL     OW  669   1.300   0.453   0.691
  211SOL    HW1  670   1.241   0.533   0.695
  211SOL    HW2  671   1.315   0.418   0.784
  212SOL     OW  672   1.593   0.221   0.882
  212SOL    HW1  673   1.509   0.220   0.936
  212SOL    HW2  674   1.595   0.304   0.826
  213SOL     OW  675   0.039   1.077   0.300
  213SOL    HW1  676   0.138   1.066   0.291
  213SOL    HW2  677  -0.001   0.991   0.332
  214SOL     OW  678   0.875   1.646   0.337
  214SOL    HW1  679   0.798   1.611   0.283
  214SOL    HW2  680   0.843   1.717   0.399
  215SOL     OW  681   0.230   0.628   1.975
  215SOL    HW1  682   0.137   0.626   2.012
  215SOL    HW2  683   0.231   0.589   1.883
  216SOL     OW  684   0.225   0.275   2.858
  216SOL    HW1  685   0.260   0.258   2.950
  216SOL    HW2  686   0.137   0.230   2.846
  217SOL     OW  687   0.019   0.368   2.509
  217SOL    HW1  688  -0.063   0.411   2.548
  217SOL    HW2  689  -0.009   0.295   2.446
  218SOL     OW  690   0.569   1.275   3.027
  218SOL    HW1  691   0.476   1.268   2.990
  218SOL    HW2  692   0.580   1.364   3.071
  219SOL     OW  693   1.555   1.511   2.565
  219SOL    HW1  694   1.498   1.495   2.646
  219SOL    HW2  695   1.496   1.521   2.485
  220SOL     OW  696   1.135   0.703   2.579
  220SOL    HW1  697   1.192   0.781   2.554
  220SOL    HW2  698   1.075   0.729   2.655
  221SOL     OW  699   1.755   0.607   2.093
  221SOL    HW1  700   1.743   0.594   1.994
  221SOL    HW2  701   1.725   0.526   2.142
  222SOL     OW  702   0.768   1.144   2.885
  222SOL    HW1  703   0.690   1.161   2.945
  222SOL    HW2  704   0.802   1.231   2.849
  223SOL     OW  705   0.850   0.798   3.685
  223SOL    HW1  706   0.846   0.874   3.750
  223SOL    HW2  707   0.872   0.834   3.594
  224SOL     OW  708   0.685   1.012   2.527
  224SOL    HW1  709   0.754   0.996   2.597
  224SOL    HW2  710   0.612   1.069   2.565
  225SOL     OW  711   0.686   1.161   3.665
  225SOL    HW1  712   0.746   1.240   3.679
  225SOL    HW2  713   0.600   1.192   3.624
  226SOL     OW  714   0.335   1.435   2.923
  226SOL    HW1  715   0.257   1.404   2.870
  226SOL    HW2  716   0.393   1.493   2.866
  227SOL     OW  717   1.460   1.505   3.201
  227SOL    HW1  718   1.484   1.599   3.227
  227SOL    HW2  719   1.444   1.451   3.283
  228SOL     OW  720   0.438   0.392   3.361
  228SOL    HW1  721   0.520   0.336   3.370
  228SOL    HW2  722   0.357   0.334   3.365
  229SOL     OW  723   1.603   0.447   2.599
  229SOL    HW1  724   1.529   0.493   2.549
  229SOL    HW2  725   1.654   0.515   2.652
  230SOL     OW  726   0.231   1.713   2.345
  230SOL    HW1  727   0.265   1.790   2.399
  230SOL    HW2  728   0.275   1.713   2.255
  231SOL     OW  729   1.127   1.341   3.552
  231SOL    HW1  730   1.174   1.341   3.640
  231SOL    HW2  731   1.079   1.254   3.541
  232SOL     OW  732   0.230   1.434   2.400
  232SOL    HW1  733   0.204   1.530   2.400
  232SOL    HW2  734   0.159   1.380   2.445
  233SOL     OW  735   0.240   1.091   2.748
  233SOL    HW1  736   0.254   1.007   2.800
  233SOL    HW2  737   0.185   1.155   2.803
  234SOL     OW  738   0.620   1.786   3.301
  234SOL    HW1  739   0.528   1.769   3.336
  234SOL    HW2  740   0.648   1.878   3.327
  235SOL     OW  741   0.606   0.964   1.985
  235SOL    HW1  742   0.613   1.048   1.931
  235SOL    HW2  743   0.652   0.977   2.073
  236SOL     OW  744   1.594   0.114   3.342
  236SOL    HW1  745   1.576   0.181   3.270
  236SOL    HW2  746   1.591   0.160   3.431
  237SOL     OW  747   0.122   0.643   2.425
  237SOL    HW1  748   0.077   0.555   2.442
  237SOL    HW2  749   0.121   0.697   2.509
  238SOL     OW  750   1.842   1.767   2.221
  238SOL    HW1  751   1.896   1.738   2.301
  238SOL    HW2  752   1.872   1.857   2.192
  239SOL     OW  753   0.027   1.596   1.979
  239SOL    HW1  754   0.008   1.500   2.000
  239SOL    HW2  755  -0.006   1.654   2.054
  240SOL     OW  756   1.689   0.922   2.474
  240SOL    HW1  757   1.784   0.893   2.482
  240SOL    HW2  758   1.681   0.987   2.399
  241SOL     OW  759   1.641   1.108   2.294
  241SOL    HW1  760   1.727   1.110   2.242
  241SOL    HW2  761   1.655   1.155   2.382
  242SOL     OW  762   0.113   0.737   3.459
  242SOL    HW1  763   0.201   0.724   3.504
  242SOL    HW2  764   0.100   0.834   3.437
  243SOL     OW  765   0.613   1.365   2.588
  243SOL    HW1  766   0.564   1.278   2.597
  243SOL    HW2  767   0.590   1.408   2.501
  244SOL     OW  768   1.293   1.228   3.285
  244SOL    HW1  769   1.330   1.155   3.227
  244SOL    HW2  770   1.345   1.233   3.370
  245SOL     OW  771   0.809   0.004   2.364
  245SOL    HW1  772   0.849   0.095   2.355
  245SOL    HW2  773   0.709   0.012   2.370
  246SOL     OW  774   0.197   0.976   3.126
  246SOL    HW1  775   0.286   0.931   3.112
  246SOL    HW2  776   0.124   0.911   3.107
  247SOL     OW  777   1.525   0.999   2.052
  247SOL    HW1  778   1.462   0.923   2.065
  247SOL    HW2  779   1.573   1.017   2.138
  248SOL     OW  780   1.187   1.792   3.478
  248SOL    HW1  781   1.211   1.852   3.402
  248SOL    HW2  782   1.194   1.697   3.448
  249SOL     OW  783   0.317   0.251   3.663
  249SOL    HW1  784   0.388   0.322   3.669
  249SOL    HW2  785   0.229   0.290   3.691
  250SOL     OW  786   1.466   1.417   2.815
  250SOL    HW1  787   1.407   1.423   2.895
  250SOL    HW2  788   1.451   1.329   2.769
  251SOL     OW  789   1.667   1.714   2.434
  251SOL    HW1  790   1.626   1.691   2.346
  251SOL    HW2  791   1.649   1.640   2.499
  252SOL     OW  792   0.598   0.729   2.132
  252SOL    HW1  793   0.622   0.798   2.064
  252SOL    HW2  794   0.520   0.762   2.186
  253SOL     OW  795   1.281   0.345   2.806
  253SOL    HW1  796   1.195   0.295   2.793
  253SOL    HW2  797   1.343   0.291   2.862
  254SOL     OW  798   1.576   1.662   2.169
  254SOL    HW1  799   1.665   1.708   2.172
  254SOL    HW2  800   1.555   1.638   2.074
  255SOL     OW  801   0.807   0.605   3.327
  255SOL    HW1  802   0.760   0.602   3.416
  255SOL    HW2  803   0.756   0.550   3.261
  256SOL     OW  804   1.394   0.469   3.536
  256SOL    HW1  805   1.374   0.512   3.624
  256SOL    HW2  806   1.472   0.407   3.545
  257SOL     OW  807   0.973   0.890   3.434
  257SOL    HW1  808   1.019   0.806   3.405
  257SOL    HW2  809   0.917   0.924   3.359
  258SOL     OW  810   0.991   0.410   3.104
  258SOL    HW1  811   0.914   0.444   3.158
  258SOL    HW2  812   0.957   0.359   3.025
  259SOL     OW  813   1.041   0.701   2.291
  259SOL    HW1  814   1.067   0.697   2.387
  259SOL    HW2  815   0.956   0.650   2.277
  260SOL     OW  816   0.076   0.811   2.651
  260SOL    HW1  817   0.175   0.799   2.660
  260SOL    HW2  818   0.052   0.906   2.672
  261SOL     OW  819   0.130   1.821   3.433
  261SOL    HW1  820   0.120   1.806   3.532
  261SOL    HW2  821   0.044   1.857   3.397
  262SOL     OW  822   0.865   0.348   2.057
  262SOL    HW1  823   0.924   0.411   2.008
  262SOL    HW2  824   0.884   0.254   2.028
  263SOL     OW  825   1.719   0.585   3.693
  263SOL    HW1  826   1.693   0.674   3.657
  263SOL    HW2  827   1.717   0.517   3.620
  264SOL     OW  828   1.362   1.144   2.407
  264SOL    HW1  829   1.445   1.115   2.359
  264SOL    HW2  830   1.313   1.211   2.351
  265SOL     OW  831   0.550   0.196   2.747
  265SOL    HW1  832   0.545   0.191   2.847
  265SOL    HW2  833   0.552   0.292   2.718
  266SOL     OW  834   1.008   1.456   2.339
  266SOL    HW1  835   0.962   1.528   2.287
  266SOL    HW2  836   1.004   1.476   2.437
  267SOL     OW  837   0.351   1.801   2.715
  267SOL    HW1  838   0.401   1.715   2.721
  267SOL    HW2  839   0.416   1.878   2.712
  268SOL     OW  840   1.795   1.066   2.735
  268SOL    HW1  841   1.733   1.051   2.659
  268SOL    HW2  842   1.743   1.077   2.820
  269SOL     OW  843   1.227   1.550   3.368
  269SOL    HW1  844   1.233   1.473   3.432
  269SOL    HW2  845   1.175   1.524   3.288
  270SOL     OW  846   0.321   0.943   2.104
  270SOL    HW1  847   0.403   0.982   2.062
  270SOL    HW2  848   0.294   0.861   2.055
  271SOL     OW  849   1.458   0.735   2.590
  271SOL    HW1  850   1.453   0.670   2.665
  271SOL    HW2  851   1.538   0.794   2.603
  272SOL     OW  852   0.461   1.266   3.589
  272SOL    HW1  853   0.411   1.267   3.503
  272SOL    HW2  854   0.398   1.248   3.665
  273SOL     OW  855   1.111   1.776   2.099
  273SOL    HW1  856   1.051   1.714   2.149
  273SOL    HW2  857   1.142   1.732   2.014
  274SOL     OW  858   0.202   0.285   3.360
  274SOL    HW1  859   0.122   0.345   3.347
  274SOL    HW2  860   0.192   0.236   3.446
  275SOL     OW  861   1.632   1.377   1.943
  275SOL    HW1  862   1.600   1.471   1.933
  275SOL    HW2  863   1.556   1.314   1.931
  276SOL     OW  864   0.464   1.743   2.185
  276SOL    HW1  865   0.497   1.782   2.271
  276SOL    HW2  866   0.540   1.736   2.120
  277SOL     OW  867   1.400   0.107   2.288
  277SOL    HW1  868   1.376   0.070   2.198
  277SOL    HW2  869   1.499   0.123   2.292
  278SOL     OW  870   0.249   1.785   3.103
  278SOL    HW1  871   0.306   1.720   3.153
  278SOL    HW2  872   0.233   1.752   3.010
  279SOL     OW  873   0.940   1.698   2.766
  279SOL    HW1  874   1.020   1.641   2.787
  279SOL    HW2  875   0.891   1.658   2.689
  280SOL     OW  876   0.382   0.700   2.342
  280SOL    HW1  877   0.427   0.610   2.339
  280SOL    HW2  878   0.288   0.689   2.375
  281SOL     OW  879   1.547   0.222   3.591
  281SOL    HW1  880   1.542   0.259   3.683
  281SOL    HW2  881   1.475   0.153   3.579
  282SOL     OW  882   0.614   0.122   1.979
  282SOL    HW1  883   0.712   0.100   1.986
  282SOL    HW2  884   0.583   0.105   1.886
  283SOL     OW  885   0.781   0.264   3.611
  283SOL    HW1  886   0.848   0.203   3.654
  283SOL    HW2  887   0.708   0.283   3.676
  284SOL     OW  888   0.888   1.514   3.057
  284SOL    HW1  889   0.865   1.489   2.963
  284SOL    HW2  890   0.949   1.445   3.096
  285SOL     OW  891   1.351   0.590   3.295
  285SOL    HW1  892   1.379   0.547   3.380
  285SOL    HW2  893   1.376   0.686   3.296
  286SOL     OW  894   0.803   1.402   2.786
  286SOL    HW1  895   0.893   1.416   2.744
  286SOL    HW2  896   0.732   1.404   2.715
  287SOL     OW  897   0.922   0.503   2.761
  287SOL    HW1  898   0.897   0.494   2.665
  287SOL    HW2  899   0.970   0.421   2.792
  288SOL     OW  900   0.539   0.064   2.374
  288SOL    HW1  901   0.458   0.065   2.432
  288SOL    HW2  902   0.542   0.147   2.319
  289SOL     OW  903   1.434   1.188   1.903
  289SOL    HW1  904   1.466   1.112   1.960
  289SOL    HW2  905   1.342   1.215   1.933
  290SOL     OW  906   0.297   0.035   2.033
  290SOL    HW1  907   0.346   0.119   2.012
  290SOL    HW2  908   0.359  -0.030   2.078
  291SOL     OW  909   0.935   0.236   2.342
  291SOL    HW1  910   0.887   0.277   2.264
  291SOL    HW2  911   1.034   0.234   2.323
  292SOL     OW  912   1.076   0.683   3.326
  292SOL    HW1  913   0.996   0.622   3.329
  292SOL    HW2  914   1.157   0.630   3.302
  293SOL     OW  915   1.227   1.570   2.655
  293SOL    HW1  916   1.248   1.644   2.590
  293SOL    HW2  917   1.295   1.570   2.728
  294SOL     OW  918   0.459   1.152   2.603
  294SOL    HW1  919   0.388   1.125   2.668
  294SOL    HW2  920   0.433   1.124   2.510
  295SOL     OW  921   1.271   1.797   2.453
  295SOL    HW1  922   1.315   1.861   2.389
  295SOL    HW2  923   1.221   1.849   2.523
  296SOL     OW  924   1.032   0.549   1.878
  296SOL    HW1  925   0.991   0.631   1.839
  296SOL    HW2  926   1.096   0.575   1.951
  297SOL     OW  927   0.078   0.556   3.248
  297SOL    HW1  928   0.170   0.555   3.207
  297SOL    HW2  929   0.072   0.630   3.315
  298SOL     OW  930   0.561   0.222   3.009
  298SOL    HW1  931   0.599   0.138   3.046
  298SOL    HW2  932   0.473   0.241   3.053
  299SOL     OW  933   0.866   0.454   2.504
  299SOL    HW1  934   0.834   0.526   2.442
  299SOL    HW2  935   0.890   0.373   2.451
  300SOL     OW  936   1.017   0.039   2.615
  300SOL    HW1  937   0.945   0.044   2.546
  300SOL    HW2  938   0.993  -0.030   2.684
  301SOL     OW  939   1.429   1.173   2.729
  301SOL    HW1  940   1.374   1.089   2.722
  301SOL    HW2  941   1.455   1.202   2.637
  302SOL     OW  942   1.466   0.590   2.854
  302SOL    HW1  943   1.436   0.495   2.861
  302SOL    HW2  944   1.539   0.606   2.920
  303SOL     OW  945   1.857   0.833   2.239
  303SOL    HW1  946   1.899   0.769   2.303
  303SOL    HW2  947   1.819   0.782   2.161
  304SOL     OW  948   0.488   1.385   2.036
  304SOL    HW1  949   0.401   1.370   2.083
  304SOL    HW2  950   0.471   1.411   1.941
  305SOL     OW  951   1.664   1.280   2.519
  305SOL    HW1  952   1.763   1.288   2.533
  305SOL    HW2  953   1.619   1.364   2.550
  306SOL     OW  954   1.390   0.575   1.940
  306SOL    HW1  955   1.336   0.554   2.021
  306SOL    HW2  956   1.481   0.534   1.949
  307SOL     OW  957   0.527   0.256   2.190
  307SOL    HW1  958   0.554   0.197   2.115
  307SOL    HW2  959   0.527   0.351   2.159
  308SOL     OW  960   1.754   1.223   3.450
  308SOL    HW1  961   1.845   1.184   3.437
  308SOL    HW2  962   1.762   1.319   3.474
  309SOL     OW  963   1.064   1.347   3.202
  309SOL    HW1  964   0.984   1.324   3.257
  309SOL    HW2  965   1.147   1.321   3.251
  310SOL     OW  966   1.592   1.629   3.487
  310SOL    HW1  967   1.619   1.663   3.397
  310SOL    HW2  968   1.671   1.591   3.533
  311SOL     OW  969   1.111   1.195   2.962
  311SOL    HW1  970   1.071   1.239   3.043
  311SOL    HW2  971   1.070   1.232   2.879
  312SOL     OW  972   1.638   1.099   2.941
  312SOL    HW1  973   1.643   1.180   3.000
  312SOL    HW2  974   1.552   1.101   2.890
  313SOL     OW  975   0.915   0.089   3.264
  313SOL    HW1  976   0.940   0.069   3.169
  313SOL    HW2  977   0.987   0.145   3.306
  314SOL     OW  978   0.980   1.116   3.581
  314SOL    HW1  979   0.881   1.122   3.591
  314SOL    HW2  980   1.003   1.036   3.525
  315SOL     OW  981   0.705   1.050   2.230
  315SOL    HW1  982   0.691   1.057   2.329
  315SOL    HW2  983   0.789   0.999   2.212
  316SOL     OW  984   0.410   0.813   3.113
  316SOL    HW1  985   0.496   0.825   3.163
  316SOL    HW2  986   0.368   0.726   3.140
  317SOL     OW  987   1.274   0.386   3.124
  317SOL    HW1  988   1.295   0.460   3.188
  317SOL    HW2  989   1.185   0.403   3.081
  318SOL     OW  990   0.064   1.564   3.193
  318SOL    HW1  991   0.018   1.646   3.159
  318SOL    HW2  992   0.162   1.583   3.202
  319SOL     OW  993   0.367   1.100   2.363
  319SOL    HW1  994   0.360   1.183   2.307
  319SOL    HW2  995   0.371   1.020   2.303
  320SOL     OW  996   0.566   0.537   2.727
  320SOL    HW1  997   0.578   0.603   2.653
  320SOL    HW2  998   0.612   0.571   2.810
  321SOL     OW  999   1.252   1.348   2.250
  321SOL    HW1 1000   1.302   1.425   2.290
  321SOL    HW2 1001   1.157   1.350   2.282
  322SOL     OW 1002   1.272   1.445   3.004
  322SOL    HW1 1003   1.319   1.458   3.091
  322SOL    HW2 1004   1.206   1.371   3.013
  323SOL     OW 1005   1.582   0.639   2.334
  323SOL    HW1 1006   1.551   0.700   2.407
  323SOL    HW2 1007   1.632   0.691   2.265
  324SOL     OW 1008   0.354   1.510   3.191
  324SOL    HW1 1009   0.333   1.466   3.104
  324SOL    HW2 1010   0.451   1.536   3.194
  325SOL     OW 1011   0.402   0.751   3.460
  325SOL    HW1 1012   0.470   0.806   3.413
  325SOL    HW2 1013   0.442   0.663   3.487
  326SOL     OW 1014   1.587   0.779   3.532
  326SOL    HW1 1015   1.495   0.817   3.527
  326SOL    HW2 1016   1.647   0.826   3.467
  327SOL     OW 1017   1.013   0.105   3.632
  327SOL    HW1 1018   1.019   0.190   3.580
  327SOL    HW2 1019   1.045   0.029   3.575
  328SOL     OW 1020   0.504   0.050   3.602
  328SOL    HW1 1021   0.462  -0.007   3.532
  328SOL    HW2 1022   0.438   0.119   3.634
  329SOL     OW 1023   0.573   0.870   2.891
  329SOL    HW1 1024   0.617   0.959   2.882
  329SOL    HW2 1025   0.510   0.870   2.968
  330SOL     OW 1026   1.360   0.862   2.907
  330SOL    HW1 1027   1.285   0.862   2.841
  330SOL    HW2 1028   1.397   0.770   2.916
  331SOL     OW 1029   1.209   0.525   2.137
  331SOL    HW1 1030   1.222   0.441   2.191
  331SOL    HW2 1031   1.180   0.599   2.197
  332SOL     OW 1032   0.307   0.213   3.093
  332SOL    HW1 1033   0.284   0.250   3.183
  332SOL    HW2 1034   0.277   0.118   3.087
  333SOL     OW 1035   0.037   1.310   3.144
  333SOL    HW1 1036   0.090   1.261   3.212
  333SOL    HW2 1037   0.059   1.408   3.149
  334SOL     OW 1038   0.732   0.634   2.926
  334SOL    HW1 1039   0.791   0.608   2.850
  334SOL    HW2 1040   0.704   0.730   2.915
  335SOL     OW 1041   1.728   0.935   3.716
  335SOL    HW1 1042   1.682   0.928   3.627
  335SOL    HW2 1043   1.666   0.979   3.782
  336SOL     OW 1044   0.307   0.063   2.480
  336SOL    HW1 1045   0.296   0.157   2.513
  336SOL    HW2 1046   0.302   0.000   2.557
  337SOL     OW 1047   1.622   0.367   2.236
  337SOL    HW1 1048   1.624   0.291   2.300
  337SOL    HW2 1049   1.574   0.444   2.276
  338SOL     OW 1050   1.023   0.766   2.828
  338SOL    HW1 1051   1.038   0.787   2.924
  338SOL    HW2 1052   0.993   0.671   2.819
  339SOL     OW 1053   0.980   1.573   3.562
  339SOL    HW1 1054   0.960   1.617   3.474
  339SOL    HW2 1055   1.019   1.482   3.546
  340SOL     OW 1056   1.859   1.518   3.467
  340SOL    HW1 1057   1.873   1.545   3.372
  340SOL    HW2 1058   1.942   1.540   3.520
  341SOL     OW 1059   0.350   0.898   3.666
  341SOL    HW1 1060   0.426   0.942   3.714
  341SOL    HW2 1061   0.385   0.851   3.584
  342SOL     OW 1062   1.540   0.274   1.987
  342SOL    HW1 1063   1.479   0.199   2.010
  342SOL    HW2 1064   1.562   0.326   2.070
  343SOL     OW 1065   1.303   0.838   1.904
  343SOL    HW1 1066   1.337   0.745   1.919
  343SOL    HW2 1067   1.321   0.865   1.809
  344SOL     OW 1068   1.068   1.333   2.711
  344SOL    HW1 1069   1.075   1.249   2.656
  344SOL    HW2 1070   1.130   1.402   2.675
  345SOL     OW 1071   0.319   0.810   2.811
  345SOL    HW1 1072   0.412   0.846   2.816
  345SOL    HW2 1073   0.313   0.725   2.863
  346SOL     OW 1074   0.339   0.509   2.868
  346SOL    HW1 1075   0.287   0.426   2.851
  346SOL    HW2 1076   0.416   0.514   2.804
  347SOL     OW 1077   1.138   0.380   3.540
  347SOL    HW1 1078   1.093   0.443   3.604
  347SOL    HW2 1079   1.231   0.411   3.523
  348SOL     OW 1080   1.160   0.207   3.339
  348SOL    HW1 1081   1.160   0.271   3.416
  348SOL    HW2 1082   1.188   0.255   3.256
  349SOL     OW 1083   0.008   1.326   2.062
  349SOL    HW1 1084  -0.085   1.347   2.031
  349SOL    HW2 1085   0.018   1.227   2.075
  350SOL     OW 1086   0.088   1.801   2.789
  350SOL    HW1 1087   0.046   1.715   2.762
  350SOL    HW2 1088   0.182   1.804   2.755
  351SOL     OW 1089   0.504   1.568   2.772
  351SOL    HW1 1090   0.570   1.642   2.781
  351SOL    HW2 1091   0.548   1.489   2.730
  352SOL     OW 1092   1.002   0.796   3.100
  352SOL    HW1 1093   1.043   0.764   3.186
  352SOL    HW2 1094   0.906   0.769   3.097
  353SOL     OW 1095   0.040   0.544   2.976
  353SOL    HW1 1096   0.125   0.511   2.935
  353SOL    HW2 1097   0.053   0.559   3.074
  354SOL     OW 1098   0.189   0.520   3.584
  354SOL    HW1 1099   0.248   0.480   3.514
  354SOL    HW2 1100   0.131   0.591   3.543
  355SOL     OW 1101   1.369   0.950   3.522
  355SOL    HW1 1102   1.408   1.039   3.542
  355SOL    HW2 1103   1.379   0.930   3.425
  356SOL     OW 1104   0.815   0.572   2.187
  356SOL    HW1 1105   0.822   0.483   2.141
  356SOL    HW2 1106   0.721   0.606   2.179
  357SOL     OW 1107   1.657   0.604   3.068
  357SOL    HW1 1108   1.619   0.535   3.130
  357SOL    HW2 1109   1.739   0.568   3.024
  358SOL     OW 1110   0.252   1.564   3.606
  358SOL    HW1 1111   0.222   1.621   3.682
  358SOL    HW2 1112   0.245   1.467   3.632
  359SOL     OW 1113   0.671   0.464   3.131
  359SOL    HW1 1114   0.637   0.375   3.101
  359SOL    HW2 1115   0.697   0.518   3.051
  360SOL     OW 1116   0.930   1.678   3.327
  360SOL    HW1 1117   0.906   1.660   3.232
  360SOL    HW2 1118   0.960   1.772   3.337
  361SOL     OW 1119   0.473   0.500   2.053
  361SOL    HW1 1120   0.534   0.580   2.057
  361SOL    HW2 1121   0.378   0.531   2.060
  362SOL     OW 1122   0.159   1.137   3.328
  362SOL    HW1 1123   0.181   1.076   3.404
  362SOL    HW2 1124   0.169   1.088   3.242
  363SOL     OW 1125   1.347   1.059   3.096
  363SOL    HW1 1126   1.371   0.996   3.022
  363SOL    HW2 1127   1.257   1.099   3.078
  364SOL     OW 1128   1.302   0.855   2.171
  364SOL    HW1 1129   1.216   0.824   2.213
  364SOL    HW2 1130   1.298   0.841   2.072
  365SOL     OW 1131   1.759   1.747   3.016
  365SOL    HW1 1132   1.820   1.777   2.943
  365SOL    HW2 1133   1.721   1.658   2.994
  366SOL     OW 1134   1.252   1.731   2.990
  366SOL    HW1 1135   1.336   1.736   2.936
  366SOL    HW2 1136   1.229   1.635   3.008
  367SOL     OW 1137   0.083   1.258   2.884
  367SOL    HW1 1138   0.078   1.257   2.984
  367SOL    HW2 1139   0.000   1.217   2.846
  368SOL     OW 1140   0.688   1.662   3.578
  368SOL    HW1 1141   0.632   1.743   3.587
  368SOL    HW2 1142   0.740   1.666   3.492
  369SOL     OW 1143   1.726   0.135   2.385
  369SOL    HW1 1144   1.799   0.118   2.318
  369SOL    HW2 1145   1.695   0.048   2.423
  370SOL     OW 1146   1.388   1.573   2.339
  370SOL    HW1 1147   1.455   1.585   2.265
  370SOL    HW2 1148   1.348   1.662   2.362
  371SOL     OW 1149   0.130   1.794   3.713
  371SOL    HW1 1150   0.089   1.720   3.766
  371SOL    HW2 1151   0.194   1.845   3.771
  372SOL     OW 1152   1.280   0.927   2.534
  372SOL    HW1 1153   1.340   0.846   2.536
  372SOL    HW2 1154   1.320   0.996   2.474
  373SOL     OW 1155   0.830   1.273   3.284
  373SOL    HW1 1156   0.825   1.306   3.379
  373SOL    HW2 1157   0.744   1.292   3.238
  374SOL     OW 1158   0.672   1.616   2.016
  374SOL    HW1 1159   0.681   1.626   1.917
  374SOL    HW2 1160   0.632   1.527   2.037
  375SOL     OW 1161   1.650   1.720   3.256
  375SOL    HW1 1162   1.703   1.730   3.172
  375SOL    HW2 1163   1.623   1.810   3.290
  376SOL     OW 1164   1.841   0.175   2.825
  376SOL    HW1 1165   1.880   0.090   2.789
  376SOL    HW2 1166   1.743   0.177   2.806
  377SOL     OW 1167   0.263   0.326   2.582
  377SOL    HW1 1168   0.184   0.377   2.548
  377SOL    HW2 1169   0.254   0.311   2.680
  378SOL     OW 1170   1.194   1.612   1.893
  378SOL    HW1 1171   1.200   1.519   1.930
  378SOL    HW2 1172   1.135   1.612   1.813
  379SOL     OW 1173   0.822   1.002   3.234
  379SOL    HW1 1174   0.862   1.001   3.142
  379SOL    HW2 1175   0.832   1.094   3.274
  380SOL     OW 1176   0.916   0.910   2.153
  380SOL    HW1 1177   0.979   0.948   2.085
  380SOL    HW2 1178   0.956   0.827   2.192
  381SOL     OW 1179   1.504   1.607   1.906
  381SOL    HW1 1180   1.412   1.644   1.913
  381SOL    HW2 1181   1.542   1.627   1.816
  382SOL     OW 1182   0.372   1.288   3.352
  382SOL    HW1 1183   0.359   1.381   3.318
  382SOL    HW2 1184   0.288   1.236   3.339
  383SOL     OW 1185   1.614   1.292   3.151
  383SOL    HW1 1186   1.674   1.295   3.231
  383SOL    HW2 1187   1.539   1.356   3.164
  384SOL     OW 1188   1.039   1.098   2.558
  384SOL    HW1 1189   0.969   1.051   2.612
  384SOL    HW2 1190   1.098   1.030   2.515
  385SOL     OW 1191   1.014   0.236   2.833
  385SOL    HW1 1192   1.006   0.200   2.740
  385SOL    HW2 1193   1.012   0.160   2.898
  386SOL     OW 1194   0.590   1.487   2.353
  386SOL    HW1 1195   0.632   1.429   2.283
  386SOL    HW2 1196   0.546   1.566   2.309
  387SOL     OW 1197   1.709   0.385   3.243
  387SOL    HW1 1198   1.782   0.454   3.247
  387SOL    HW2 1199   1.737   0.310   3.184
  388SOL     OW 1200   0.255   1.348   2.152
  388SOL    HW1 1201   0.159   1.349   2.125
  388SOL    HW2 1202   0.267   1.401   2.236
  389SOL     OW 1203   0.105   1.013   3.588
  389SOL    HW1 1204   0.028   0.980   3.642
  389SOL    HW2 1205   0.190   0.983   3.630
  390SOL     OW 1206   0.672   0.203   3.351
  390SOL    HW1 1207   0.762   0.187   3.311
  390SOL    HW2 1208   0.680   0.208   3.450
  391SOL     OW 1209   0.075   0.345   1.895
  391SOL    HW1 1210  -0.017   0.317   1.866
  391SOL    HW2 1211   0.106   0.422   1.839
  392SOL     OW 1212   1.440   0.856   3.260
  392SOL    HW1 1213   1.383   0.908   3.197
  392SOL    HW2 1214   1.536   0.868   3.236
  393SOL     OW 1215   0.072   0.166   2.180
  393SOL    HW1 1216   0.055   0.249   2.126
  393SOL    HW2 1217   0.162   0.129   2.158
  394SOL     OW 1218   1.183   1.335   1.981
  394SOL    HW1 1219   1.084   1.324   1.983
  394SOL    HW2 1220   1.217   1.350   2.074
  395SOL     OW 1221   0.613   0.842   3.293
  395SOL    HW1 1222   0.669   0.923   3.276
  395SOL    HW2 1223   0.672   0.762   3.296
  396SOL     OW 1224   1.493   1.767   2.821
  396SOL    HW1 1225   1.526   1.831   2.752
  396SOL    HW2 1226   1.559   1.761   2.896
  397SOL     OW 1227   0.716   0.565   3.570
  397SOL    HW1 1228   0.735   0.630   3.644
  397SOL    HW2 1229   0.776   0.485   3.579
  398SOL     OW 1230   1.450   1.220   3.495
  398SOL    HW1 1231   1.441   1.210   3.594
  398SOL    HW2 1232   1.546   1.213   3.469
  399SOL     OW 1233   0.390   1.741   3.422
  399SOL    HW1 1234   0.299   1.782   3.420
  399SOL    HW2 1235   0.383   1.647   3.454
  400SOL     OW 1236   1.674   0.883   3.116
  400SOL    HW1 1237   1.647   0.794   3.079
  400SOL    HW2 1238   1.675   0.951   3.043
  401SOL     OW 1239   1.225   0.325   2.311
  401SOL    HW1 1240   1.290   0.251   2.300
  401SOL    HW2 1241   1.245   0.375   2.395
  402SOL     OW 1242   0.594   0.745   2.514
  402SOL    HW1 1243   0.644   0.830   2.495
  402SOL    HW2 1244   0.506   0.747   2.466
  403SOL     OW 1245   1.777   0.342   3.504
  403SOL    HW1 1246   1.760   0.373   3.410
  403SOL    HW2 1247   1.693   0.305   3.542
  404SOL     OW 1248   1.730   0.934   3.379
  404SOL    HW1 1249   1.768   1.025   3.394
  404SOL    HW2 1250   1.722   0.917   3.280
  405SOL     OW 1251   0.859   1.374   1.878
  405SOL    HW1 1252   0.813   1.389   1.966
  405SOL    HW2 1253   0.903   1.459   1.848
  406SOL     OW 1254   0.661   1.790   2.815
  406SOL    HW1 1255   0.615   1.878   2.802
  406SOL    HW2 1256   0.760   1.802   2.808
  407SOL     OW 1257   0.859   0.956   2.723
  407SOL    HW1 1258   0.913   0.887   2.771
  407SOL    HW2 1259   0.827   1.025   2.789
  408SOL     OW 1260   1.083   0.984   1.949
  408SOL    HW1 1261   1.060   1.037   1.867
  408SOL    HW2 1262   1.164   0.928   1.930
  409SOL     OW 1263   1.861   1.569   2.713
  409SOL    HW1 1264   1.790   1.557   2.643
  409SOL    HW2 1265   1.862   1.490   2.773
  410SOL     OW 1266   0.221   1.314   3.706
  410SOL    HW1 1267   0.156   1.241   3.685
  410SOL    HW2 1268   0.225   1.328   3.804
  411SOL     OW 1269   0.079   1.240   2.515
  411SOL    HW1 1270   0.078   1.193   2.603
  411SOL    HW2 1271   0.161   1.212   2.464
  412SOL     OW 1272   0.672   1.391   3.486
  412SOL    HW1 1273   0.594   1.341   3.524
  412SOL    HW2 1274   0.669   1.486   3.517
  413SOL     OW 1275   1.824   0.192   3.089
  413SOL    HW1 1276   1.820   0.102   3.133
  413SOL    HW2 1277   1.827   0.181   2.990
  414SOL     OW 1278   0.428   0.424   2.382
  414SOL    HW1 1279   0.458   0.352   2.320
  414SOL    HW2 1280   0.389   0.384   2.465
  415SOL     OW 1281   1.705   1.487   2.966
  415SOL    HW1 1282   1.612   1.462   2.939
  415SOL    HW2 1283   1.731   1.437   3.048
  416SOL     OW 1284   0.317   0.547   3.142
  416SOL    HW1 1285   0.355   0.488   3.214
  416SOL    HW2 1286   0.357   0.521   3.054
  417SOL     OW 1287   0.812   1.586   2.549
  417SOL    HW1 1288   0.844   1.596   2.455
  417SOL    HW2 1289   0.733   1.524   2.551
  418SOL     OW 1290   1.424   0.214   2.974
  418SOL    HW1 1291   1.476   0.149   3.029
  418SOL    HW2 1292   1.375   0.277   3.035
  419SOL     OW 1293   1.001   0.034   3.016
  419SOL    HW1 1294   0.938  -0.038   2.985
  419SOL    HW2 1295   1.094  -0.002   3.016
  420SOL     OW 1296   0.770   1.330   2.163
  420SOL    HW1 1297   0.724   1.243   2.180
  420SOL    HW2 1298   0.861   1.327   2.204
  421SOL     OW 1299   0.618   1.567   3.146
  421SOL    HW1 1300   0.613   1.649   3.203
  421SOL    HW2 1301   0.707   1.564   3.101
  422SOL     OW 1302   1.352   0.052   2.030
  422SOL    HW1 1303   1.387   0.011   1.946
  422SOL    HW2 1304   1.262   0.014   2.050
  423SOL     OW 1305   1.300   0.453   2.553
  423SOL    HW1 1306   1.241   0.533   2.557
  423SOL    HW2 1307   1.315   0.418   2.646
  424SOL     OW 1308   1.593   0.221   2.744
  424SOL    HW1 1309   1.509   0.220   2.798
  424SOL    HW2 1310   1.595   0.304   2.688
  425SOL     OW 1311   0.039   1.077   2.162
  425SOL    HW1 1312   0.138   1.066   2.153
  425SOL    HW2 1313  -0.001   0.991   2.194
  426SOL     OW 1314   0.875   1.646   2.199
  426SOL    HW1 1315   0.798   1.611   2.145
  426SOL    HW2 1316   0.843   1.717   2.261
  427SOL     OW 1317   0.230   0.628   3.837
  427SOL    HW1 1318   0.137   0.626   3.874
  427SOL    HW2 1319   0.231   0.589   3.745
  428SOL     OW 1320   0.225   0.275   4.720
  428SOL    HW1 1321   0.260   0.258   4.812
  428SOL    HW2 1322   0.137   0.230   4.708
  429SOL     OW 1323   0.019   0.368   4.371
  429SOL    HW1 1324  -0.063   0.411   4.410
  429SOL    HW2 1325  -0.009   0.295   4.308
  430SOL     OW 1326   1.555   1.511   4.427
  430SOL    HW1 1327   1.498   1.495   4.508
  430SOL    HW2 1328   1.496   1.521   4.347
  431SOL     OW 1329   1.135   0.703   4.441
  431SOL    HW1 1330   1.192   0.781   4.416
  431SOL    HW2 1331   1.075   0.729   4.517
  432SOL     OW 1332   1.755   0.607   3.955
  432SOL    HW1 1333   1.743   0.594   3.856
  432SOL    HW2 1334   1.725   0.526   4.004
  433SOL     OW 1335   0.768   1.144   4.747
  433SOL    HW1 1336   0.690   1.161   4.807
  433SOL    HW2 1337   0.802   1.231   4.711
  434SOL     OW 1338   0.685   1.012   4.389
  434SOL    HW1 1339   0.754   0.996   4.459
  434SOL    HW2 1340   0.612   1.069   4.427
  435SOL     OW 1341   0.335   1.435   4.785
  435SOL    HW1 1342   0.257   1.404   4.732
  435SOL    HW2 1343   0.393   1.493   4.728
  436SOL     OW 1344   1.603   0.447   4.461
  436SOL    HW1 1345   1.529   0.493   4.411
  436SOL    HW2 1346   1.654   0.515   4.514
  437SOL     OW 1347   0.231   1.713   4.207
  437SOL    HW1 1348   0.265   1.790   4.261
  437SOL    HW2 1349   0.275   1.713   4.117
  438SOL     OW 1350   0.230   1.434   4.262
  438SOL    HW1 1351   0.204   1.530   4.262
  438SOL    HW2 1352   0.159   1.380   4.307
  439SOL     OW 1353   0.240   1.091   4.610
  439SOL    HW1 1354   0.254   1.007   4.662
  439SOL    HW2 1355   0.185   1.155   4.665
  440SOL     OW 1356   0.606   0.964   3.847
  440SOL    HW1 1357   0.613   1.048   3.793
  440SOL    HW2 1358   0.652   0.977   3.935
  441SOL     OW 1359   0.122   0.643   4.287
  441SOL    HW1 1360   0.077   0.555   4.304
  441SOL    HW2 1361   0.121   0.697   4.371
  442SOL     OW 1362   1.842   1.767   4.083
  442SOL    HW1 1363   1.896   1.738   4.163
  442SOL    HW2 1364   1.872   1.857   4.054
  443SOL     OW 1365   0.027   1.596   3.841
  443SOL    HW1 1366   0.008   1.500   3.862
  443SOL    HW2 1367  -0.006   1.654   3.916
  444SOL     OW 1368   1.689   0.922   4.336
  444SOL    HW1 1369   1.784   0.893   4.344
  444SOL    HW2 1370   1.681   0.987   4.261
  445SOL     OW 1371   1.641   1.108   4.156
  445SOL    HW1 1372   1.727   1.110   4.104
  445SOL    HW2 1373   1.655   1.155   4.244
  446SOL     OW 1374   0.613   1.365   4.450
  446SOL    HW1 1375   0.564   1.278   4.459
  446SOL    HW2 1376   0.590   1.408   4.363
  447SOL     OW 1377   0.809   0.004   4.226
  447SOL    HW1 1378   0.849   0.095   4.217
  447SOL    HW2 1379   0.709   0.012   4.232
  448SOL     OW 1380   1.525   0.999   3.914
  448SOL    HW1 1381   1.462   0.923   3.927
  448SOL    HW2 1382   1.573   1.017   4.000
  449SOL     OW 1383   1.466   1.417   4.677
  449SOL    HW1 1384   1.407   1.423   4.757
  449SOL    HW2 1385   1.451   1.329   4.631
  450SOL     OW 1386   1.667   1.714   4.296
  450SOL    HW1 1387   1.626   1.691   4.208
  450SOL    HW2 1388   1.649   1.640   4.361
  451SOL     OW 1389   0.598   0.729   3.994
  451SOL    HW1 1390   0.622   0.798   3.926
  451SOL    HW2 1391   0.520   0.762   4.048
  452SOL     OW 1392   1.281   0.345   4.668
  452SOL    HW1 1393   1.195   0.295   4.655
  452SOL    HW2 1394   1.343   0.291   4.724
  453SOL     OW 1395   1.576   1.662   4.031
  453SOL    HW1 1396   1.665   1.708   4.034
  453SOL    HW2 1397   1.555   1.638   3.936
  454SOL     OW 1398   1.041   0.701   4.153
  454SOL    HW1 1399   1.067   0.697   4.249
  454SOL    HW2 1400   0.956   0.650   4.139
  455SOL     OW 1401   0.076   0.811   4.513
  455SOL    HW1 1402   0.175   0.799   4.522
  455SOL    HW2 1403   0.052   0.906   4.534
  456SOL     OW 1404   0.865   0.348   3.919
  456SOL    HW1 1405   0.924   0.411   3.870
  456SOL    HW2 1406   0.884   0.254   3.890
  457SOL     OW 1407   1.362   1.144   4.269
  457SOL    HW1 1408   1.445   1.115   4.221
  457SOL    HW2 1409   1.313   1.211   4.213
  458SOL     OW 1410   0.550   0.196   4.609
  458SOL    HW1 1411   0.545   0.191   4.709
  458SOL    HW2 1412   0.552   0.292   4.580
  459SOL     OW 1413   1.008   1.456   4.201
  459SOL    HW1 1414   0.962   1.528   4.149
  459SOL    HW2 1415   1.004   1.476   4.299
  460SOL     OW 1416   0.351   1.801   4.577
  460SOL    HW1 1417   0.401   1.715   4.583
  460SOL    HW2 1418   0.416   1.878   4.574
  461SOL     OW 1419   1.795   1.066   4.597
  461SOL    HW1 1420   1.733   1.051   4.521
  461SOL    HW2 1421   1.743   1.077   4.682
  462SOL     OW 1422   0.321   0.943   3.966
  462SOL    HW1 1423   0.403   0.982   3.924
  462SOL    HW2 1424   0.294   0.861   3.917
  463SOL     OW 1425   1.458   0.735   4.452
  463SOL    HW1 1426   1.453   0.670   4.527
  463SOL    HW2 1427   1.538   0.794   4.465
  464SOL     OW 1428   1.111   1.776   3.961
  464SOL    HW1 1429   1.051   1.714   4.011
  464SOL    HW2 1430   1.142   1.732   3.876
  465SOL     OW 1431   1.632   1.377   3.805
  465SOL    HW1 1432   1.600   1.471   3.795
  465SOL    HW2 1433   1.556   1.314   3.793
  466SOL     OW 1434   0.464   1.743   4.047
  466SOL    HW1 1435   0.497   1.782   4.133
  466SOL    HW2 1436   0.540   1.736   3.982
  467SOL     OW 1437   1.400   0.107   4.150
  467SOL    HW1 1438   1.376   0.070   4.060
  467SOL    HW2 1439   1.499   0.123   4.154
  468SOL     OW 1440   0.249   1.785   4.965
  468SOL    HW1 1441   0.306   1.720   5.015
  468SOL    HW2 1442   0.233   1.752   4.872
  469SOL     OW 1443   0.940   1.698   4.628
  469SOL    HW1 1444   1.020   1.641   4.649
  469SOL    HW2 1445   0.891   1.658   4.551
  470SOL     OW 1446   0.382   0.700   4.204
  470SOL    HW1 1447   0.427   0.610   4.201
  470SOL    HW2 1448   0.288   0.689   4.237
  471SOL     OW 1449   0.614   0.122   3.841
  471SOL    HW1 1450   0.712   0.100   3.848
  471SOL    HW2 1451   0.583   0.105   3.748
  472SOL     OW 1452   0.803   1.402   4.648
  472SOL    HW1 1453   0.893   1.416   4.606
  472SOL    HW2 1454   0.732   1.404   4.577
  473SOL     OW 1455   0.922   0.503   4.623
  473SOL    HW1 1456   0.897   0.494   4.527
  473SOL    HW2 1457   0.970   0.421   4.654
  474SOL     OW 1458   0.539   0.064   4.236
  474SOL    HW1 1459   0.458   0.065   4.294
  474SOL    HW2 1460   0.542   0.147   4.181
  475SOL     OW 1461   1.434   1.188   3.765
  475SOL    HW1 1462   1.466   1.112   3.822
  475SOL    HW2 1463   1.342   1.215   3.795
  476SOL     OW 1464   0.297   0.035   3.895
  476SOL    HW1 1465   0.346   0.119   3.874
  476SOL    HW2 1466   0.359  -0.030   3.940
  477SOL     OW 1467   0.935   0.236   4.204
  477SOL    HW1 1468   0.887   0.277   4.126
  477SOL    HW2 1469   1.034   0.234   4.185
  478SOL     OW 1470   1.227   1.570   4.517
  478SOL    HW1 1471   1.248   1.644   4.452
  478SOL    HW2 1472   1.295   1.570   4.590
  479SOL     OW 1473   0.459   1.152   4.465
  479SOL    HW1 1474   0.388   1.125   4.530
  479SOL    HW2 1475   0.433   1.124   4.372
  480SOL     OW 1476   1.271   1.797   4.315
  480SOL    HW1 1477   1.315   1.861   4.251
  480SOL    HW2 1478   1.221   1.849   4.385
  481SOL     OW 1479   1.032   0.549   3.740
  481SOL    HW1 1480   0.991   0.631   3.701
  481SOL    HW2 1481   1.096   0.575   3.813
  482SOL     OW 1482   0.866   0.454   4.366
  482SOL    HW1 1483   0.834   0.526   4.304
  482SOL    HW2 1484   0.890   0.373   4.313
  483SOL     OW 1485   1.017   0.039   4.477
  483SOL    HW1 1486   0.945   0.044   4.408
  483SOL    HW2 1487   0.993  -0.030   4.546
  484SOL     OW 1488   1.429   1.173   4.591
  484SOL    HW1 1489   1.374   1.089   4.584
  484SOL    HW2 1490   1.455   1.202   4.499
  485SOL     OW 1491   1.466   0.590   4.716
  485SOL    HW1 1492   1.436   0.495   4.723
  485SOL    HW2 1493   1.539   0.606   4.782
  486SOL     OW 1494   1.857   0.833   4.101
  486SOL    HW1 1495   1.899   0.769   4.165
  486SOL    HW2 1496   1.819   0.782   4.023
  487SOL     OW 1497   0.488   1.385   3.898
  487SOL    HW1 1498   0.401   1.370   3.945
  487SOL    HW2 1499   0.471   1.411   3.803
  488SOL     OW 1500   1.664   1.280   4.381
  488SOL    HW1 1501   1.763   1.288   4.395
  488SOL    HW2 1502   1.619   1.364   4.412
  489SOL     OW 1503   1.390   0.575   3.802
  489SOL    HW1 1504   1.336   0.554   3.883
  489SOL    HW2 1505   1.481   0.534   3.811
  490SOL     OW 1506   0.527   0.256   4.052
  490SOL    HW1 1507   0.554   0.197   3.977
  490SOL    HW2 1508   0.527   0.351   4.021
  491SOL     OW 1509   1.638   1.099   4.803
  491SOL    HW1 1510   1.643   1.180   4.862
  491SOL    HW2 1511   1.552   1.101   4.752
  492SOL     OW 1512   0.705   1.050   4.092
  492SOL    HW1 1513   0.691   1.057   4.191
  492SOL    HW2 1514   0.789   0.999   4.074
  493SOL     OW 1515   0.367   1.100   4.225
  493SOL    HW1 1516   0.360   1.183   4.169
  493SOL    HW2 1517   0.371   1.020   4.165
  494SOL     OW 1518   0.566   0.537   4.589
  494SOL    HW1 1519   0.578   0.603   4.515
  494SOL    HW2 1520   0.612   0.571   4.672
  495SOL     OW 1521   1.252   1.348   4.112
  495SOL    HW1 1522   1.302   1.425   4.152
  495SOL    HW2 1523   1.157   1.350   4.144
  496SOL     OW 1524   1.582   0.639   4.196
  496SOL    HW1 1525   1.551   0.700   4.269
  496SOL    HW2 1526   1.632   0.691   4.127
  497SOL     OW 1527   0.573   0.870   4.753
  497SOL    HW1 1528   0.617   0.959   4.744
  497SOL    HW2 1529   0.510   0.870   4.830
  498SOL     OW 1530   1.209   0.525   3.999
  498SOL    HW1 1531   1.222   0.441   4.053
  498SOL    HW2 1532   1.180   0.599   4.059
  499SOL     OW 1533   0.732   0.634   4.788
  499SOL    HW1 1534   0.791   0.608   4.712
  499SOL    HW2 1535   0.704   0.730   4.777
  500SOL     OW 1536   0.307   0.063   4.342
  500SOL    HW1 1537   0.296   0.157   4.375
  500SOL    HW2 1538   0.302   0.000   4.419
  501SOL     OW 1539   1.622   0.367   4.098
  501SOL    HW1 1540   1.624   0.291   4.162
  501SOL    HW2 1541   1.574   0.444   4.138
  502SOL     OW 1542   1.540   0.274   3.849
  502SOL    HW1 1543   1.479   0.199   3.872
  502SOL    HW2 1544   1.562   0.326   3.932
  503SOL     OW 1545   1.303   0.838   3.766
  503SOL    HW1 1546   1.337   0.745   3.781
  503SOL    HW2 1547   1.321   0.865   3.671
  504SOL     OW 1548   1.068   1.333   4.573
  504SOL    HW1 1549   1.075   1.249   4.518
  504SOL    HW2 1550   1.130   1.402   4.537
  505SOL     OW 1551   0.319   0.810   4.673
  505SOL    HW1 1552   0.412   0.846   4.678
  505SOL    HW2 1553   0.313   0.725   4.725
  506SOL     OW 1554   0.339   0.509   4.730
  506SOL    HW1 1555   0.287   0.426   4.713
  506SOL    HW2 1556   0.416   0.514   4.666
  507SOL     OW 1557   0.008   1.326   3.924
  507SOL    HW1 1558  -0.085   1.347   3.893
  507SOL    HW2 1559   0.018   1.227   3.937
  508SOL     OW 1560   0.088   1.801   4.651
  508SOL    HW1 1561   0.046   1.715   4.624
  508SOL    HW2 1562   0.182   1.804   4.617
  509SOL     OW 1563   0.504   1.568   4.634
  509SOL    HW1 1564   0.570   1.642   4.643
  509SOL    HW2 1565   0.548   1.489   4.592
  510SOL     OW 1566   1.002   0.796   4.962
  510SOL    HW1 1567   1.043   0.764   5.048
  510SOL    HW2 1568   0.906   0.769   4.959
  511SOL     OW 1569   0.815   0.572   4.049
  511SOL    HW1 1570   0.822   0.483   4.003
  511SOL    HW2 1571   0.721   0.606   4.041
  512SOL     OW 1572   0.671   0.464   4.993
  512SOL    HW1 1573   0.637   0.375   4.963
  512SOL    HW2 1574   0.697   0.518   4.913
  513SOL     OW 1575   0.473   0.500   3.915
  513SOL    HW1 1576   0.534   0.580   3.919
  513SOL    HW2 1577   0.378   0.531   3.922
  514SOL     OW 1578   1.302   0.855   4.033
  514SOL    HW1 1579   1.216   0.824   4.075
  514SOL    HW2 1580   1.298   0.841   3.934
  515SOL     OW 1581   1.759   1.747   4.878
  515SOL    HW1 1582   1.820   1.777   4.805
  515SOL    HW2 1583   1.721   1.658   4.856
  516SOL     OW 1584   0.083   1.258   4.746
  516SOL    HW1 1585   0.078   1.257   4.846
  516SOL    HW2 1586   0.000   1.217   4.708
  517SOL     OW 1587   1.726   0.135   4.247
  517SOL    HW1 1588   1.799   0.118   4.180
  517SOL    HW2 1589   1.695   0.048   4.285
  518SOL     OW 1590   1.388   1.573   4.201
  518SOL    HW1 1591   1.455   1.585   4.127
  518SOL    HW2 1592   1.348   1.662   4.224
  519SOL     OW 1593   1.280   0.927   4.396
  519SOL    HW1 1594   1.340   0.846   4.398
  519SOL    HW2 1595   1.320   0.996   4.336
  520SOL     OW 1596   0.672   1.616   3.878
  520SOL    HW1 1597   0.681   1.626   3.779
  520SOL    HW2 1598   0.632   1.527   3.899
  521SOL     OW 1599   1.841   0.175   4.687
  521SOL    HW1 1600   1.880   0.090   4.651
  521SOL    HW2 1601   1.743   0.177   4.668
  522SOL     OW 1602   0.263   0.326   4.444
  522SOL    HW1 1603   0.184   0.377   4.410
  522SOL    HW2 1604   0.254   0.311   4.542
  523SOL     OW 1605   1.194   1.612   3.755
  523SOL    HW1 1606   1.200   1.519   3.792
  523SOL    HW2 1607   1.135   1.612   3.675
  524SOL     OW 1608   0.916   0.910   4.015
  524SOL    HW1 1609   0.979   0.948   3.947
  524SOL    HW2 1610   0.956   0.827   4.054
  525SOL     OW 1611   1.504   1.607   3.768
  525SOL    HW1 1612   1.412   1.644   3.775
  525SOL    HW2 1613   1.542   1.627   3.678
  526SOL     OW 1614   1.039   1.098   4.420
  526SOL    HW1 1615   0.969   1.051   4.474
  526SOL    HW2 1616   1.098   1.030   4.377
  527SOL     OW 1617   0.590   1.487   4.215
  527SOL    HW1 1618   0.632   1.429   4.145
  527SOL    HW2 1619   0.546   1.566   4.171
  528SOL     OW 1620   0.255   1.348   4.014
  528SOL    HW1 1621   0.159   1.349   3.987
  528SOL    HW2 1622   0.267   1.401   4.098
  529SOL     OW 1623   0.075   0.345   3.757
  529SOL    HW1 1624  -0.017   0.317   3.728
  529SOL    HW2 1625   0.106   0.422   3.701
  530SOL     OW 1626   0.072   0.166   4.042
  530SOL    HW1 1627   0.055   0.249   3.988
  530SOL    HW2 1628   0.162   0.129   4.020
  531SOL     OW 1629   1.183   1.335   3.843
  531SOL    HW1 1630   1.084   1.324   3.845
  531SOL    HW2 1631   1.217   1.350   3.936
  532SOL     OW 1632   1.674   0.883   4.978
  532SOL    HW1 1633   1.647   0.794   4.941
  532SOL    HW2 1634   1.675   0.951   4.905
  533SOL     OW 1635   1.225   0.325   4.173
  533SOL    HW1 1636   1.290   0.251   4.162
  533SOL    HW2 1637   1.245   0.375   4.257
  534SOL     OW 1638   0.594   0.745   4.376
  534SOL    HW1 1639   0.644   0.830   4.357
  534SOL    HW2 1640   0.506   0.747   4.328
  535SOL     OW 1641   0.859   1.374   3.740
  535SOL    HW1 1642   0.813   1.389   3.828
  535SOL    HW2 1643   0.903   1.459   3.710
  536SOL     OW 1644   0.661   1.790   4.677
  536SOL    HW1 1645   0.615   1.878   4.664
  536SOL    HW2 1646   0.760   1.802   4.670
  537SOL     OW 1647   0.859   0.956   4.585
  537SOL    HW1 1648   0.913   0.887   4.633
  537SOL    HW2 1649   0.827   1.025   4.651
  538SOL     OW 1650   1.083   0.984   3.811
  538SOL    HW1 1651   1.060   1.037   3.729
  538SOL    HW2 1652   1.164   0.928   3.792
  539SOL     OW 1653   1.861   1.569   4.575
  539SOL    HW1 1654   1.790   1.557   4.505
  539SOL    HW2 1655   1.862   1.490   4.635
  540SOL     OW 1656   0.079   1.240   4.377
  540SOL    HW1 1657   0.078   1.193   4.465
  540SOL    HW2 1658   0.161   1.212   4.326
  541SOL     OW 1659   1.824   0.192   4.951
  541SOL    HW1 1660   1.820   0.102   4.995
  541SOL    HW2 1661   1.827   0.181   4.852
  542SOL     OW 1662   0.428   0.424   4.244
  542SOL    HW1 1663   0.458   0.352   4.182
  542SOL    HW2 1664   0.389   0.384   4.327
  543SOL     OW 1665   0.812   1.586   4.411
  543SOL    HW1 1666   0.844   1.596   4.317
  543SOL    HW2 1667   0.733   1.524   4.413
  544SOL     OW 1668   0.770   1.330   4.025
  544SOL    HW1 1669   0.724   1.243   4.042
  544SOL    HW2 1670   0.861   1.327   4.066
  545SOL     OW 1671   1.352   0.052   3.892
  545SOL    HW1 1672   1.387   0.011   3.808
  545SOL    HW2 1673   1.262   0.014   3.912
  546SOL     OW 1674   1.300   0.453   4.415
  546SOL    HW1 1675   1.241   0.533   4.419
  546SOL    HW2 1676   1.315   0.418   4.508
  547SOL     OW 1677   1.593   0.221   4.606
  547SOL    HW1 1678   1.509   0.220   4.660
  547SOL    HW2 1679   1.595   0.304   4.550
  548SOL     OW 1680   0.039   1.077   4.024
  548SOL    HW1 1681   0.138   1.066   4.015
  548SOL    HW2 1682  -0.001   0.991   4.056
  549SOL     OW 1683   0.875   1.646   4.061
  549SOL    HW1 1684   0.798   1.611   4.007
  549SOL    HW2 1685   0.843   1.717   4.123
  550SOL     OW 1686   0.230   2.490   0.113
  550SOL    HW1 1687   0.137   2.488   0.150
  550SOL    HW2 1688   0.231   2.451   0.021
  551SOL     OW 1689   0.225   2.137   0.996
  551SOL    HW1 1690   0.260   2.120   1.088
  551SOL    HW2 1691   0.137   2.092   0.984
  552SOL     OW 1692   0.019   2.230   0.647
  552SOL    HW1 1693  -0.063   2.273   0.686
  552SOL    HW2 1694  -0.009   2.157   0.584
  553SOL     OW 1695   0.569   3.137   1.165
  553SOL    HW1 1696   0.476   3.130   1.128
  553SOL    HW2 1697   0.580   3.226   1.209
  554SOL     OW 1698   1.555   3.373   0.703
  554SOL    HW1 1699   1.498   3.357   0.784
  554SOL    HW2 1700   1.496   3.383   0.623
  555SOL     OW 1701   1.135   2.565   0.717
  555SOL    HW1 1702   1.192   2.643   0.692
  555SOL    HW2 1703   1.075   2.591   0.793
  556SOL     OW 1704   1.755   2.469   0.231
  556SOL    HW1 1705   1.743   2.456   0.132
  556SOL    HW2 1706   1.725   2.388   0.280
  557SOL     OW 1707   0.768   3.006   1.023
  557SOL    HW1 1708   0.690   3.023   1.083
  557SOL    HW2 1709   0.802   3.093   0.987
  558SOL     OW 1710   0.850   2.660   1.823
  558SOL    HW1 1711   0.846   2.736   1.888
  558SOL    HW2 1712   0.872   2.696   1.732
  559SOL     OW 1713   0.685   2.874   0.665
  559SOL    HW1 1714   0.754   2.858   0.735
  559SOL    HW2 1715   0.612   2.931   0.703
  560SOL     OW 1716   0.686   3.023   1.803
  560SOL    HW1 1717   0.746   3.102   1.817
  560SOL    HW2 1718   0.600   3.054   1.762
  561SOL     OW 1719   0.335   3.297   1.061
  561SOL    HW1 1720   0.257   3.266   1.008
  561SOL    HW2 1721   0.393   3.355   1.004
  562SOL     OW 1722   1.460   3.367   1.339
  562SOL    HW1 1723   1.484   3.461   1.365
  562SOL    HW2 1724   1.444   3.313   1.421
  563SOL     OW 1725   0.438   2.254   1.499
  563SOL    HW1 1726   0.520   2.198   1.508
  563SOL    HW2 1727   0.357   2.196   1.503
  564SOL     OW 1728   1.603   2.309   0.737
  564SOL    HW1 1729   1.529   2.355   0.687
  564SOL    HW2 1730   1.654   2.377   0.790
  565SOL     OW 1731   0.231   3.575   0.483
  565SOL    HW1 1732   0.265   3.652   0.537
  565SOL    HW2 1733   0.275   3.575   0.393
  566SOL     OW 1734   1.127   3.203   1.690
  566SOL    HW1 1735   1.174   3.203   1.778
  566SOL    HW2 1736   1.079   3.116   1.679
  567SOL     OW 1737   0.230   3.296   0.538
  567SOL    HW1 1738   0.204   3.392   0.538
  567SOL    HW2 1739   0.159   3.242   0.583
  568SOL     OW 1740   0.240   2.953   0.886
  568SOL    HW1 1741   0.254   2.869   0.938
  568SOL    HW2 1742   0.185   3.017   0.941
  569SOL     OW 1743   0.620   3.648   1.439
  569SOL    HW1 1744   0.528   3.631   1.474
  569SOL    HW2 1745   0.648   3.740   1.465
  570SOL     OW 1746   0.606   2.826   0.123
  570SOL    HW1 1747   0.613   2.910   0.069
  570SOL    HW2 1748   0.652   2.839   0.211
  571SOL     OW 1749   1.594   1.976   1.480
  571SOL    HW1 1750   1.576   2.043   1.408
  571SOL    HW2 1751   1.591   2.022   1.569
  572SOL     OW 1752   0.122   2.505   0.563
  572SOL    HW1 1753   0.077   2.417   0.580
  572SOL    HW2 1754   0.121   2.559   0.647
  573SOL     OW 1755   1.842   3.629   0.359
  573SOL    HW1 1756   1.896   3.600   0.439
  573SOL    HW2 1757   1.872   3.719   0.330
  574SOL     OW 1758   0.027   3.458   0.117
  574SOL    HW1 1759   0.008   3.362   0.138
  574SOL    HW2 1760  -0.006   3.516   0.192
  575SOL     OW 1761   1.689   2.784   0.612
  575SOL    HW1 1762   1.784   2.755   0.620
  575SOL    HW2 1763   1.681   2.849   0.537
  576SOL     OW 1764   1.641   2.970   0.432
  576SOL    HW1 1765   1.727   2.972   0.380
  576SOL    HW2 1766   1.655   3.017   0.520
  577SOL     OW 1767   0.113   2.599   1.597
  577SOL    HW1 1768   0.201   2.586   1.642
  577SOL    HW2 1769   0.100   2.696   1.575
  578SOL     OW 1770   0.613   3.227   0.726
  578SOL    HW1 1771   0.564   3.140   0.735
  578SOL    HW2 1772   0.590   3.270   0.639
  579SOL     OW 1773   1.293   3.090   1.423
  579SOL    HW1 1774   1.330   3.017   1.365
  579SOL    HW2 1775   1.345   3.095   1.508
  580SOL     OW 1776   0.809   1.866   0.502
  580SOL    HW1 1777   0.849   1.957   0.493
  580SOL    HW2 1778   0.709   1.874   0.508
  581SOL     OW 1779   0.197   2.838   1.264
  581SOL    HW1 1780   0.286   2.793   1.250
  581SOL    HW2 1781   0.124   2.773   1.245
  582SOL     OW 1782   1.525   2.861   0.190
  582SOL    HW1 1783   1.462   2.785   0.203
  582SOL    HW2 1784   1.573   2.879   0.276
  583SOL     OW 1785   1.187   3.654   1.616
  583SOL    HW1 1786   1.211   3.714   1.540
  583SOL    HW2 1787   1.194   3.559   1.586
  584SOL     OW 1788   0.317   2.113   1.801
  584SOL    HW1 1789   0.388   2.184   1.807
  584SOL    HW2 1790   0.229   2.152   1.829
  585SOL     OW 1791   1.466   3.279   0.953
  585SOL    HW1 1792   1.407   3.285   1.033
  585SOL    HW2 1793   1.451   3.191   0.907
  586SOL     OW 1794   1.667   3.576   0.572
  586SOL    HW1 1795   1.626   3.553   0.484
  586SOL    HW2 1796   1.649   3.502   0.637
  587SOL     OW 1797   0.598   2.591   0.270
  587SOL    HW1 1798   0.622   2.660   0.202
  587SOL    HW2 1799   0.520   2.624   0.324
  588SOL     OW 1800   1.281   2.207   0.944
  588SOL    HW1 1801   1.195   2.157   0.931
  588SOL    HW2 1802   1.343   2.153   1.000
  589SOL     OW 1803   1.576   3.524   0.307
  589SOL    HW1 1804   1.665   3.570   0.310
  589SOL    HW2 1805   1.555   3.500   0.212
  590SOL     OW 1806   0.807   2.467   1.465
  590SOL    HW1 1807   0.760   2.464   1.554
  590SOL    HW2 1808   0.756   2.412   1.399
  591SOL     OW 1809   1.394   2.331   1.674
  591SOL    HW1 1810   1.374   2.374   1.762
  591SOL    HW2 1811   1.472   2.269   1.683
  592SOL     OW 1812   0.973   2.752   1.572
  592SOL    HW1 1813   1.019   2.668   1.543
  592SOL    HW2 1814   0.917   2.786   1.497
  593SOL     OW 1815   0.991   2.272   1.242
  593SOL    HW1 1816   0.914   2.306   1.296
  593SOL    HW2 1817   0.957   2.221   1.163
  594SOL     OW 1818   1.041   2.563   0.429
  594SOL    HW1 1819   1.067   2.559   0.525
  594SOL    HW2 1820   0.956   2.512   0.415
  595SOL     OW 1821   0.076   2.673   0.789
  595SOL    HW1 1822   0.175   2.661   0.798
  595SOL    HW2 1823   0.052   2.768   0.810
  596SOL     OW 1824   0.130   3.683   1.571
  596SOL    HW1 1825   0.120   3.668   1.670
  596SOL    HW2 1826   0.044   3.719   1.535
  597SOL     OW 1827   0.865   2.210   0.195
  597SOL    HW1 1828   0.924   2.273   0.146
  597SOL    HW2 1829   0.884   2.116   0.166
  598SOL     OW 1830   1.719   2.447   1.831
  598SOL    HW1 1831   1.693   2.536   1.795
  598SOL    HW2 1832   1.717   2.379   1.758
  599SOL     OW 1833   1.362   3.006   0.545
  599SOL    HW1 1834   1.445   2.977   0.497
  599SOL    HW2 1835   1.313   3.073   0.489
  600SOL     OW 1836   0.550   2.058   0.885
  600SOL    HW1 1837   0.545   2.053   0.985
  600SOL    HW2 1838   0.552   2.154   0.856
  601SOL     OW 1839   1.008   3.318   0.477
  601SOL    HW1 1840   0.962   3.390   0.425
  601SOL    HW2 1841   1.004   3.338   0.575
  602SOL     OW 1842   0.351   3.663   0.853
  602SOL    HW1 1843   0.401   3.577   0.859
  602SOL    HW2 1844   0.416   3.740   0.850
  603SOL     OW 1845   1.795   2.928   0.873
  603SOL    HW1 1846   1.733   2.913   0.797
  603SOL    HW2 1847   1.743   2.939   0.958
  604SOL     OW 1848   1.227   3.412   1.506
  604SOL    HW1 1849   1.233   3.335   1.570
  604SOL    HW2 1850   1.175   3.386   1.426
  605SOL     OW 1851   0.321   2.805   0.242
  605SOL    HW1 1852   0.403   2.844   0.200
  605SOL    HW2 1853   0.294   2.723   0.193
  606SOL     OW 1854   1.458   2.597   0.728
  606SOL    HW1 1855   1.453   2.532   0.803
  606SOL    HW2 1856   1.538   2.656   0.741
  607SOL     OW 1857   0.461   3.128   1.727
  607SOL    HW1 1858   0.411   3.129   1.641
  607SOL    HW2 1859   0.398   3.110   1.803
  608SOL     OW 1860   1.111   3.638   0.237
  608SOL    HW1 1861   1.051   3.576   0.287
  608SOL    HW2 1862   1.142   3.594   0.152
  609SOL     OW 1863   0.202   2.147   1.498
  609SOL    HW1 1864   0.122   2.207   1.485
  609SOL    HW2 1865   0.192   2.098   1.584
  610SOL     OW 1866   1.632   3.239   0.081
  610SOL    HW1 1867   1.600   3.333   0.071
  610SOL    HW2 1868   1.556   3.176   0.069
  611SOL     OW 1869   0.464   3.605   0.323
  611SOL    HW1 1870   0.497   3.644   0.409
  611SOL    HW2 1871   0.540   3.598   0.258
  612SOL     OW 1872   1.400   1.969   0.426
  612SOL    HW1 1873   1.376   1.932   0.336
  612SOL    HW2 1874   1.499   1.985   0.430
  613SOL     OW 1875   0.249   3.647   1.241
  613SOL    HW1 1876   0.306   3.582   1.291
  613SOL    HW2 1877   0.233   3.614   1.148
  614SOL     OW 1878   0.940   3.560   0.904
  614SOL    HW1 1879   1.020   3.503   0.925
  614SOL    HW2 1880   0.891   3.520   0.827
  615SOL     OW 1881   0.382   2.562   0.480
  615SOL    HW1 1882   0.427   2.472   0.477
  615SOL    HW2 1883   0.288   2.551   0.513
  616SOL     OW 1884   1.547   2.084   1.729
  616SOL    HW1 1885   1.542   2.121   1.821
  616SOL    HW2 1886   1.475   2.015   1.717
  617SOL     OW 1887   0.614   1.984   0.117
  617SOL    HW1 1888   0.712   1.962   0.124
  617SOL    HW2 1889   0.583   1.967   0.024
  618SOL     OW 1890   0.781   2.126   1.749
  618SOL    HW1 1891   0.848   2.065   1.792
  618SOL    HW2 1892   0.708   2.145   1.814
  619SOL     OW 1893   0.888   3.376   1.195
  619SOL    HW1 1894   0.865   3.351   1.101
  619SOL    HW2 1895   0.949   3.307   1.234
  620SOL     OW 1896   1.351   2.452   1.433
  620SOL    HW1 1897   1.379   2.409   1.518
  620SOL    HW2 1898   1.376   2.548   1.434
  621SOL     OW 1899   0.803   3.264   0.924
  621SOL    HW1 1900   0.893   3.278   0.882
  621SOL    HW2 1901   0.732   3.266   0.853
  622SOL     OW 1902   0.922   2.365   0.899
  622SOL    HW1 1903   0.897   2.356   0.803
  622SOL    HW2 1904   0.970   2.283   0.930
  623SOL     OW 1905   0.539   1.926   0.512
  623SOL    HW1 1906   0.458   1.927   0.570
  623SOL    HW2 1907   0.542   2.009   0.457
  624SOL     OW 1908   1.434   3.050   0.041
  624SOL    HW1 1909   1.466   2.974   0.098
  624SOL    HW2 1910   1.342   3.077   0.071
  625SOL     OW 1911   0.935   2.098   0.480
  625SOL    HW1 1912   0.887   2.139   0.402
  625SOL    HW2 1913   1.034   2.096   0.461
  626SOL     OW 1914   1.076   2.545   1.464
  626SOL    HW1 1915   0.996   2.484   1.467
  626SOL    HW2 1916   1.157   2.492   1.440
  627SOL     OW 1917   1.227   3.432   0.793
  627SOL    HW1 1918   1.248   3.506   0.728
  627SOL    HW2 1919   1.295   3.432   0.866
  628SOL     OW 1920   0.459   3.014   0.741
  628SOL    HW1 1921   0.388   2.987   0.806
  628SOL    HW2 1922   0.433   2.986   0.648
  629SOL     OW 1923   1.271   3.659   0.591
  629SOL    HW1 1924   1.315   3.723   0.527
  629SOL    HW2 1925   1.221   3.711   0.661
  630SOL     OW 1926   1.032   2.411   0.016
  630SOL    HW1 1927   0.991   2.493  -0.023
  630SOL    HW2 1928   1.096   2.437   0.089
  631SOL     OW 1929   0.078   2.418   1.386
  631SOL    HW1 1930   0.170   2.417   1.345
  631SOL    HW2 1931   0.072   2.492   1.453
  632SOL     OW 1932   0.561   2.084   1.147
  632SOL    HW1 1933   0.599   2.000   1.184
  632SOL    HW2 1934   0.473   2.103   1.191
  633SOL     OW 1935   0.866   2.316   0.642
  633SOL    HW1 1936   0.834   2.388   0.580
  633SOL    HW2 1937   0.890   2.235   0.589
  634SOL     OW 1938   1.017   1.901   0.753
  634SOL    HW1 1939   0.945   1.906   0.684
  634SOL    HW2 1940   0.993   1.832   0.822
  635SOL     OW 1941   1.429   3.035   0.867
  635SOL    HW1 1942   1.374   2.951   0.860
  635SOL    HW2 1943   1.455   3.064   0.775
  636SOL     OW 1944   1.466   2.452   0.992
  636SOL    HW1 1945   1.436   2.357   0.999
  636SOL    HW2 1946   1.539   2.468   1.058
  637SOL     OW 1947   1.857   2.695   0.377
  637SOL    HW1 1948   1.899   2.631   0.441
  637SOL    HW2 1949   1.819   2.644   0.299
  638SOL     OW 1950   0.488   3.247   0.174
  638SOL    HW1 1951   0.401   3.232   0.221
  638SOL    HW2 1952   0.471   3.273   0.079
  639SOL     OW 1953   1.664   3.142   0.657
  639SOL    HW1 1954   1.763   3.150   0.671
  639SOL    HW2 1955   1.619   3.226   0.688
  640SOL     OW 1956   1.390   2.437   0.078
  640SOL    HW1 1957   1.336   2.416   0.159
  640SOL    HW2 1958   1.481   2.396   0.087
  641SOL     OW 1959   0.527   2.118   0.328
  641SOL    HW1 1960   0.554   2.059   0.253
  641SOL    HW2 1961   0.527   2.213   0.297
  642SOL     OW 1962   1.754   3.085   1.588
  642SOL    HW1 1963   1.845   3.046   1.575
  642SOL    HW2 1964   1.762   3.181   1.612
  643SOL     OW 1965   1.064   3.209   1.340
  643SOL    HW1 1966   0.984   3.186   1.395
  643SOL    HW2 1967   1.147   3.183   1.389
  644SOL     OW 1968   1.592   3.491   1.625
  644SOL    HW1 1969   1.619   3.525   1.535
  644SOL    HW2 1970   1.671   3.453   1.671
  645SOL     OW 1971   1.111   3.057   1.100
  645SOL    HW1 1972   1.071   3.101   1.181
  645SOL    HW2 1973   1.070   3.094   1.017
  646SOL     OW 1974   1.638   2.961   1.079
  646SOL    HW1 1975   1.643   3.042   1.138
  646SOL    HW2 1976   1.552   2.963   1.028
  647SOL     OW 1977   0.915   1.951   1.402
  647SOL    HW1 1978   0.940   1.931   1.307
  647SOL    HW2 1979   0.987   2.007   1.444
  648SOL     OW 1980   0.980   2.978   1.719
  648SOL    HW1 1981   0.881   2.984   1.729
  648SOL    HW2 1982   1.003   2.898   1.663
  649SOL     OW 1983   0.705   2.912   0.368
  649SOL    HW1 1984   0.691   2.919   0.467
  649SOL    HW2 1985   0.789   2.861   0.350
  650SOL     OW 1986   0.410   2.675   1.251
  650SOL    HW1 1987   0.496   2.687   1.301
  650SOL    HW2 1988   0.368   2.588   1.278
  651SOL     OW 1989   1.274   2.248   1.262
  651SOL    HW1 1990   1.295   2.322   1.326
  651SOL    HW2 1991   1.185   2.265   1.219
  652SOL     OW 1992   0.064   3.426   1.331
  652SOL    HW1 1993   0.018   3.508   1.297
  652SOL    HW2 1994   0.162   3.445   1.340
  653SOL     OW 1995   0.367   2.962   0.501
  653SOL    HW1 1996   0.360   3.045   0.445
  653SOL    HW2 1997   0.371   2.882   0.441
  654SOL     OW 1998   0.566   2.399   0.865
  654SOL    HW1 1999   0.578   2.465   0.791
  654SOL    HW2 2000   0.612   2.433   0.948
  655SOL     OW 2001   1.252   3.210   0.388
  655SOL    HW1 2002   1.302   3.287   0.428
  655SOL    HW2 2003   1.157   3.212   0.420
  656SOL     OW 2004   1.272   3.307   1.142
  656SOL    HW1 2005   1.319   3.320   1.229
  656SOL    HW2 2006   1.206   3.233   1.151
  657SOL     OW 2007   1.582   2.501   0.472
  657SOL    HW1 2008   1.551   2.562   0.545
  657SOL    HW2 2009   1.632   2.553   0.403
  658SOL     OW 2010   0.354   3.372   1.329
  658SOL    HW1 2011   0.333   3.328   1.242
  658SOL    HW2 2012   0.451   3.398   1.332
  659SOL     OW 2013   0.402   2.613   1.598
  659SOL    HW1 2014   0.470   2.668   1.551
  659SOL    HW2 2015   0.442   2.525   1.625
  660SOL     OW 2016   1.587   2.641   1.670
  660SOL    HW1 2017   1.495   2.679   1.665
  660SOL    HW2 2018   1.647   2.688   1.605
  661SOL     OW 2019   1.013   1.967   1.770
  661SOL    HW1 2020   1.019   2.052   1.718
  661SOL    HW2 2021   1.045   1.891   1.713
  662SOL     OW 2022   0.504   1.912   1.740
  662SOL    HW1 2023   0.462   1.855   1.670
  662SOL    HW2 2024   0.438   1.981   1.772
  663SOL     OW 2025   0.573   2.732   1.029
  663SOL    HW1 2026   0.617   2.821   1.020
  663SOL    HW2 2027   0.510   2.732   1.106
  664SOL     OW 2028   1.360   2.724   1.045
  664SOL    HW1 2029   1.285   2.724   0.979
  664SOL    HW2 2030   1.397   2.632   1.054
  665SOL     OW 2031   1.209   2.387   0.275
  665SOL    HW1 2032   1.222   2.303   0.329
  665SOL    HW2 2033   1.180   2.461   0.335
  666SOL     OW 2034   0.307   2.075   1.231
  666SOL    HW1 2035   0.284   2.112   1.321
  666SOL    HW2 2036   0.277   1.980   1.225
  667SOL     OW 2037   0.037   3.172   1.282
  667SOL    HW1 2038   0.090   3.123   1.350
  667SOL    HW2 2039   0.059   3.270   1.287
  668SOL     OW 2040   0.732   2.496   1.064
  668SOL    HW1 2041   0.791   2.470   0.988
  668SOL    HW2 2042   0.704   2.592   1.053
  669SOL     OW 2043   1.728   2.797   1.854
  669SOL    HW1 2044   1.682   2.790   1.765
  669SOL    HW2 2045   1.666   2.841   1.920
  670SOL     OW 2046   0.307   1.925   0.618
  670SOL    HW1 2047   0.296   2.019   0.651
  670SOL    HW2 2048   0.302   1.862   0.695
  671SOL     OW 2049   1.622   2.229   0.374
  671SOL    HW1 2050   1.624   2.153   0.438
  671SOL    HW2 2051   1.574   2.306   0.414
  672SOL     OW 2052   1.023   2.628   0.966
  672SOL    HW1 2053   1.038   2.649   1.062
  672SOL    HW2 2054   0.993   2.533   0.957
  673SOL     OW 2055   0.980   3.435   1.700
  673SOL    HW1 2056   0.960   3.479   1.612
  673SOL    HW2 2057   1.019   3.344   1.684
  674SOL     OW 2058   1.859   3.380   1.605
  674SOL    HW1 2059   1.873   3.407   1.510
  674SOL    HW2 2060   1.942   3.402   1.658
  675SOL     OW 2061   0.350   2.760   1.804
  675SOL    HW1 2062   0.426   2.804   1.852
  675SOL    HW2 2063   0.385   2.713   1.722
  676SOL     OW 2064   1.540   2.136   0.125
  676SOL    HW1 2065   1.479   2.061   0.148
  676SOL    HW2 2066   1.562   2.188   0.208
  677SOL     OW 2067   1.303   2.700   0.042
  677SOL    HW1 2068   1.337   2.607   0.057
  677SOL    HW2 2069   1.321   2.727  -0.053
  678SOL     OW 2070   1.068   3.195   0.849
  678SOL    HW1 2071   1.075   3.111   0.794
  678SOL    HW2 2072   1.130   3.264   0.813
  679SOL     OW 2073   0.319   2.672   0.949
  679SOL    HW1 2074   0.412   2.708   0.954
  679SOL    HW2 2075   0.313   2.587   1.001
  680SOL     OW 2076   0.339   2.371   1.006
  680SOL    HW1 2077   0.287   2.288   0.989
  680SOL    HW2 2078   0.416   2.376   0.942
  681SOL     OW 2079   1.138   2.242   1.678
  681SOL    HW1 2080   1.093   2.305   1.742
  681SOL    HW2 2081   1.231   2.273   1.661
  682SOL     OW 2082   1.160   2.069   1.477
  682SOL    HW1 2083   1.160   2.133   1.554
  682SOL    HW2 2084   1.188   2.117   1.394
  683SOL     OW 2085   0.008   3.188   0.200
  683SOL    HW1 2086  -0.085   3.209   0.169
  683SOL    HW2 2087   0.018   3.089   0.213
  684SOL     OW 2088   0.088   3.663   0.927
  684SOL    HW1 2089   0.046   3.577   0.900
  684SOL    HW2 2090   0.182   3.666   0.893
  685SOL     OW 2091   0.504   3.430   0.910
  685SOL    HW1 2092   0.570   3.504   0.919
  685SOL    HW2 2093   0.548   3.351   0.868
  686SOL     OW 2094   1.002   2.658   1.238
  686SOL    HW1 2095   1.043   2.626   1.324
  686SOL    HW2 2096   0.906   2.631   1.235
  687SOL     OW 2097   0.040   2.406   1.114
  687SOL    HW1 2098   0.125   2.373   1.073
  687SOL    HW2 2099   0.053   2.421   1.212
  688SOL     OW 2100   0.189   2.382   1.722
  688SOL    HW1 2101   0.248   2.342   1.652
  688SOL    HW2 2102   0.131   2.453   1.681
  689SOL     OW 2103   1.369   2.812   1.660
  689SOL    HW1 2104   1.408   2.901   1.680
  689SOL    HW2 2105   1.379   2.792   1.563
  690SOL     OW 2106   0.815   2.434   0.325
  690SOL    HW1 2107   0.822   2.345   0.279
  690SOL    HW2 2108   0.721   2.468   0.317
  691SOL     OW 2109   1.657   2.466   1.206
  691SOL    HW1 2110   1.619   2.397   1.268
  691SOL    HW2 2111   1.739   2.430   1.162
  692SOL     OW 2112   0.252   3.426   1.744
  692SOL    HW1 2113   0.222   3.483   1.820
  692SOL    HW2 2114   0.245   3.329   1.770
  693SOL     OW 2115   0.671   2.326   1.269
  693SOL    HW1 2116   0.637   2.237   1.239
  693SOL    HW2 2117   0.697   2.380   1.189
  694SOL     OW 2118   0.930   3.540   1.465
  694SOL    HW1 2119   0.906   3.522   1.370
  694SOL    HW2 2120   0.960   3.634   1.475
  695SOL     OW 2121   0.473   2.362   0.191
  695SOL    HW1 2122   0.534   2.442   0.195
  695SOL    HW2 2123   0.378   2.393   0.198
  696SOL     OW 2124   0.159   2.999   1.466
  696SOL    HW1 2125   0.181   2.938   1.542
  696SOL    HW2 2126   0.169   2.950   1.380
  697SOL     OW 2127   1.347   2.921   1.234
  697SOL    HW1 2128   1.371   2.858   1.160
  697SOL    HW2 2129   1.257   2.961   1.216
  698SOL     OW 2130   1.302   2.717   0.309
  698SOL    HW1 2131   1.216   2.686   0.351
  698SOL    HW2 2132   1.298   2.703   0.210
  699SOL     OW 2133   1.759   3.609   1.154
  699SOL    HW1 2134   1.820   3.639   1.081
  699SOL    HW2 2135   1.721   3.520   1.132
  700SOL     OW 2136   1.252   3.593   1.128
  700SOL    HW1 2137   1.336   3.598   1.074
  700SOL    HW2 2138   1.229   3.497   1.146
  701SOL     OW 2139   0.083   3.120   1.022
  701SOL    HW1 2140   0.078   3.119   1.122
  701SOL    HW2 2141   0.000   3.079   0.984
  702SOL     OW 2142   0.688   3.524   1.716
  702SOL    HW1 2143   0.632   3.605   1.725
  702SOL    HW2 2144   0.740   3.528   1.630
  703SOL     OW 2145   0.903   1.948   0.133
  703SOL    HW1 2146   0.954   1.949   0.047
  703SOL    HW2 2147   0.959   1.906   0.204
  704SOL     OW 2148   1.726   1.997   0.523
  704SOL    HW1 2149   1.799   1.980   0.456
  704SOL    HW2 2150   1.695   1.910   0.561
  705SOL     OW 2151   1.388   3.435   0.477
  705SOL    HW1 2152   1.455   3.447   0.403
  705SOL    HW2 2153   1.348   3.524   0.500
  706SOL     OW 2154   0.130   3.656   1.851
  706SOL    HW1 2155   0.089   3.582   1.904
  706SOL    HW2 2156   0.194   3.707   1.909
  707SOL     OW 2157   1.280   2.789   0.672
  707SOL    HW1 2158   1.340   2.708   0.674
  707SOL    HW2 2159   1.320   2.858   0.612
  708SOL     OW 2160   0.830   3.135   1.422
  708SOL    HW1 2161   0.825   3.168   1.517
  708SOL    HW2 2162   0.744   3.154   1.376
  709SOL     OW 2163   0.672   3.478   0.154
  709SOL    HW1 2164   0.681   3.488   0.055
  709SOL    HW2 2165   0.632   3.389   0.175
  710SOL     OW 2166   1.650   3.582   1.394
  710SOL    HW1 2167   1.703   3.592   1.310
  710SOL    HW2 2168   1.623   3.672   1.428
  711SOL     OW 2169   1.841   2.037   0.963
  711SOL    HW1 2170   1.880   1.952   0.927
  711SOL    HW2 2171   1.743   2.039   0.944
  712SOL     OW 2172   0.263   2.188   0.720
  712SOL    HW1 2173   0.184   2.239   0.686
  712SOL    HW2 2174   0.254   2.173   0.818
  713SOL     OW 2175   1.194   3.474   0.031
  713SOL    HW1 2176   1.200   3.381   0.068
  713SOL    HW2 2177   1.135   3.474  -0.049
  714SOL     OW 2178   0.822   2.864   1.372
  714SOL    HW1 2179   0.862   2.863   1.280
  714SOL    HW2 2180   0.832   2.956   1.412
  715SOL     OW 2181   0.916   2.772   0.291
  715SOL    HW1 2182   0.979   2.810   0.223
  715SOL    HW2 2183   0.956   2.689   0.330
  716SOL     OW 2184   1.504   3.469   0.044
  716SOL    HW1 2185   1.412   3.506   0.051
  716SOL    HW2 2186   1.542   3.489  -0.046
  717SOL     OW 2187   0.372   3.150   1.490
  717SOL    HW1 2188   0.359   3.243   1.456
  717SOL    HW2 2189   0.288   3.098   1.477
  718SOL     OW 2190   1.614   3.154   1.289
  718SOL    HW1 2191   1.674   3.157   1.369
  718SOL    HW2 2192   1.539   3.218   1.302
  719SOL     OW 2193   1.039   2.960   0.696
  719SOL    HW1 2194   0.969   2.913   0.750
  719SOL    HW2 2195   1.098   2.892   0.653
  720SOL     OW 2196   1.014   2.098   0.971
  720SOL    HW1 2197   1.006   2.062   0.878
  720SOL    HW2 2198   1.012   2.022   1.036
  721SOL     OW 2199   0.590   3.349   0.491
  721SOL    HW1 2200   0.632   3.291   0.421
  721SOL    HW2 2201   0.546   3.428   0.447
  722SOL     OW 2202   1.709   2.247   1.381
  722SOL    HW1 2203   1.782   2.316   1.385
  722SOL    HW2 2204   1.737   2.172   1.322
  723SOL     OW 2205   0.255   3.210   0.290
  723SOL    HW1 2206   0.159   3.211   0.263
  723SOL    HW2 2207   0.267   3.263   0.374
  724SOL     OW 2208   0.105   2.875   1.726
  724SOL    HW1 2209   0.028   2.842   1.780
  724SOL    HW2 2210   0.190   2.845   1.768
  725SOL     OW 2211   0.672   2.065   1.489
  725SOL    HW1 2212   0.762   2.049   1.449
  725SOL    HW2 2213   0.680   2.070   1.588
  726SOL     OW 2214   0.075   2.207   0.033
  726SOL    HW1 2215  -0.017   2.179   0.004
  726SOL    HW2 2216   0.106   2.284  -0.023
  727SOL     OW 2217   1.440   2.718   1.398
  727SOL    HW1 2218   1.383   2.770   1.335
  727SOL    HW2 2219   1.536   2.730   1.374
  728SOL     OW 2220   0.072   2.028   0.318
  728SOL    HW1 2221   0.055   2.111   0.264
  728SOL    HW2 2222   0.162   1.991   0.296
  729SOL     OW 2223   1.183   3.197   0.119
  729SOL    HW1 2224   1.084   3.186   0.121
  729SOL    HW2 2225   1.217   3.212   0.212
  730SOL     OW 2226   0.613   2.704   1.431
  730SOL    HW1 2227   0.669   2.785   1.414
  730SOL    HW2 2228   0.672   2.624   1.434
  731SOL     OW 2229   1.493   3.629   0.959
  731SOL    HW1 2230   1.526   3.693   0.890
  731SOL    HW2 2231   1.559   3.623   1.034
  732SOL     OW 2232   0.716   2.427   1.708
  732SOL    HW1 2233   0.735   2.492   1.782
  732SOL    HW2 2234   0.776   2.347   1.717
  733SOL     OW 2235   1.450   3.082   1.633
  733SOL    HW1 2236   1.441   3.072   1.732
  733SOL    HW2 2237   1.546   3.075   1.607
  734SOL     OW 2238   0.390   3.603   1.560
  734SOL    HW1 2239   0.299   3.644   1.558
  734SOL    HW2 2240   0.383   3.509   1.592
  735SOL     OW 2241   1.674   2.745   1.254
  735SOL    HW1 2242   1.647   2.656   1.217
  735SOL    HW2 2243   1.675   2.813   1.181
  736SOL     OW 2244   1.225   2.187   0.449
  736SOL    HW1 2245   1.290   2.113   0.438
  736SOL    HW2 2246   1.245   2.237   0.533
  737SOL     OW 2247   0.594   2.607   0.652
  737SOL    HW1 2248   0.644   2.692   0.633
  737SOL    HW2 2249   0.506   2.609   0.604
  738SOL     OW 2250   1.777   2.204   1.642
  738SOL    HW1 2251   1.760   2.235   1.548
  738SOL    HW2 2252   1.693   2.167   1.680
  739SOL     OW 2253   1.730   2.796   1.517
  739SOL    HW1 2254   1.768   2.887   1.532
  739SOL    HW2 2255   1.722   2.779   1.418
  740SOL     OW 2256   0.859   3.236   0.016
  740SOL    HW1 2257   0.813   3.251   0.104
  740SOL    HW2 2258   0.903   3.321  -0.014
  741SOL     OW 2259   0.661   3.652   0.953
  741SOL    HW1 2260   0.615   3.740   0.940
  741SOL    HW2 2261   0.760   3.664   0.946
  742SOL     OW 2262   0.859   2.818   0.861
  742SOL    HW1 2263   0.913   2.749   0.909
  742SOL    HW2 2264   0.827   2.887   0.927
  743SOL     OW 2265   1.083   2.846   0.087
  743SOL    HW1 2266   1.060   2.899   0.005
  743SOL    HW2 2267   1.164   2.790   0.068
  744SOL     OW 2268   1.861   3.431   0.851
  744SOL    HW1 2269   1.790   3.419   0.781
  744SOL    HW2 2270   1.862   3.352   0.911
  745SOL     OW 2271   0.221   3.176   1.844
  745SOL    HW1 2272   0.156   3.103   1.823
  745SOL    HW2 2273   0.225   3.190   1.942
  746SOL     OW 2274   0.079   3.102   0.653
  746SOL    HW1 2275   0.078   3.055   0.741
  746SOL    HW2 2276   0.161   3.074   0.602
  747SOL     OW 2277   0.672   3.253   1.624
  747SOL    HW1 2278   0.594   3.203   1.662
  747SOL    HW2 2279   0.669   3.348   1.655
  748SOL     OW 2280   1.824   2.054   1.227
  748SOL    HW1 2281   1.820   1.964   1.271
  748SOL    HW2 2282   1.827   2.043   1.128
  749SOL     OW 2283   0.428   2.286   0.520
  749SOL    HW1 2284   0.458   2.214   0.458
  749SOL    HW2 2285   0.389   2.246   0.603
  750SOL     OW 2286   1.705   3.349   1.104
  750SOL    HW1 2287   1.612   3.324   1.077
  750SOL    HW2 2288   1.731   3.299   1.186
  751SOL     OW 2289   0.317   2.409   1.280
  751SOL    HW1 2290   0.355   2.350   1.352
  751SOL    HW2 2291   0.357   2.383   1.192
  752SOL     OW 2292   0.812   3.448   0.687
  752SOL    HW1 2293   0.844   3.458   0.593
  752SOL    HW2 2294   0.733   3.386   0.689
  753SOL     OW 2295   1.424   2.076   1.112
  753SOL    HW1 2296   1.476   2.011   1.167
  753SOL    HW2 2297   1.375   2.139   1.173
  754SOL     OW 2298   1.001   1.896   1.154
  754SOL    HW1 2299   0.938   1.824   1.123
  754SOL    HW2 2300   1.094   1.860   1.154
  755SOL     OW 2301   0.770   3.192   0.301
  755SOL    HW1 2302   0.724   3.105   0.318
  755SOL    HW2 2303   0.861   3.189   0.342
  756SOL     OW 2304   0.618   3.429   1.284
  756SOL    HW1 2305   0.613   3.511   1.341
  756SOL    HW2 2306   0.707   3.426   1.239
  757SOL     OW 2307   1.352   1.914   0.168
  757SOL    HW1 2308   1.387   1.873   0.084
  757SOL    HW2 2309   1.262   1.876   0.188
  758SOL     OW 2310   1.300   2.315   0.691
  758SOL    HW1 2311   1.241   2.395   0.695
  758SOL    HW2 2312   1.315   2.280   0.784
  759SOL     OW 2313   1.593   2.083   0.882
  759SOL    HW1 2314   1.509   2.082   0.936
  759SOL    HW2 2315   1.595   2.166   0.826
  760SOL     OW 2316   0.039   2.939   0.300
  760SOL    HW1 2317   0.138   2.928   0.291
  760SOL    HW2 2318  -0.001   2.853   0.332
  761SOL     OW 2319   0.875   3.508   0.337
  761SOL    HW1 2320   0.798   3.473   0.283
  761SOL    HW2 2321   0.843   3.579   0.399
  762SOL     OW 2322   0.230   2.490   1.975
  762SOL    HW1 2323   0.137   2.488   2.012
  762SOL    HW2 2324   0.231   2.451   1.883
  763SOL     OW 2325   0.225   2.137   2.858
  763SOL    HW1 2326   0.260   2.120   2.950
  763SOL    HW2 2327   0.137   2.092   2.846
  764SOL     OW 2328   0.019   2.230   2.509
  764SOL    HW1 2329  -0.063   2.273   2.548
  764SOL    HW2 2330  -0.009   2.157   2.446
  765SOL     OW 2331   0.569   3.137   3.027
  765SOL    HW1 2332   0.476   3.130   2.990
  765SOL    HW2 2333   0.580   3.226   3.071
  766SOL     OW 2334   1.555   3.373   2.565
  766SOL    HW1 2335   1.498   3.357   2.646
  766SOL    HW2 2336   1.496   3.383   2.485
  767SOL     OW 2337   1.135   2.565   2.579
  767SOL    HW1 2338   1.192   2.643   2.554
  767SOL    HW2 2339   1.075   2.591   2.655
  768SOL     OW 2340   1.755   2.469   2.093
  768SOL    HW1 2341   1.743   2.456   1.994
  768SOL    HW2 2342   1.725   2.388   2.142
  769SOL     OW 2343   0.768   3.006   2.885
  769SOL    HW1 2344   0.690   3.023   2.945
  769SOL    HW2 2345   0.802   3.093   2.849
  770SOL     OW 2346   0.850   2.660   3.685
  770SOL    HW1 2347   0.846   2.736   3.750
  770SOL    HW2 2348   0.872   2.696   3.594
  771SOL     OW 2349   0.685   2.874   2.527
  771SOL    HW1 2350   0.754   2.858   2.597
  771SOL    HW2 2351   0.612   2.931   2.565
  772SOL     OW 2352   0.686   3.023   3.665
  772SOL    HW1 2353   0.746   3.102   3.679
  772SOL    HW2 2354   0.600   3.054   3.624
  773SOL     OW 2355   0.335   3.297   2.923
  773SOL    HW1 2356   0.257   3.266   2.870
  773SOL    HW2 2357   0.393   3.355   2.866
  774SOL     OW 2358   1.460   3.367   3.201
  774SOL    HW1 2359   1.484   3.461   3.227
  774SOL    HW2 2360   1.444   3.313   3.283
  775SOL     OW 2361   0.438   2.254   3.361
  775SOL    HW1 2362   0.520   2.198   3.370
  775SOL    HW2 2363   0.357   2.196   3.365
  776SOL     OW 2364   0.231   3.575   2.345
  776SOL    HW1 2365   0.265   3.652   2.399
  776SOL    HW2 2366   0.275   3.575   2.255
  777SOL     OW 2367   1.127   3.203   3.552
  777SOL    HW1 2368   1.174   3.203   3.640
  777SOL    HW2 2369   1.079   3.116   3.541
  778SOL     OW 2370   0.230   3.296   2.400
  778SOL    HW1 2371   0.204   3.392   2.400
  778SOL    HW2 2372   0.159   3.242   2.445
  779SOL     OW 2373   0.240   2.953   2.748
  779SOL    HW1 2374   0.254   2.869   2.800
  779SOL    HW2 2375   0.185   3.017   2.803
  780SOL     OW 2376   0.620   3.648   3.301
  780SOL    HW1 2377   0.528   3.631   3.336
  780SOL    HW2 2378   0.648   3.740   3.327
  781SOL     OW 2379   0.606   2.826   1.985
  781SOL    HW1 2380   0.613   2.910   1.931
  781SOL    HW2 2381   0.652   2.839   2.073
  782SOL     OW 2382   1.594   1.976   3.342
  782SOL    HW1 2383   1.576   2.043   3.270
  782SOL    HW2 2384   1.591   2.022   3.431
  783SOL     OW 2385   0.122   2.505   2.425
  783SOL    HW1 2386   0.077   2.417   2.442
  783SOL    HW2 2387   0.121   2.559   2.509
  784SOL     OW 2388   1.842   3.629   2.221
  784SOL    HW1 2389   1.896   3.600   2.301
  784SOL    HW2 2390   1.872   3.719   2.192
  785SOL     OW 2391   0.027   3.458   1.979
  785SOL    HW1 2392   0.008   3.362   2.000
  785SOL    HW2 2393  -0.006   3.516   2.054
  786SOL     OW 2394   1.689   2.784   2.474
  786SOL    HW1 2395   1.784   2.755   2.482
  786SOL    HW2 2396   1.681   2.849   2.399
  787SOL     OW 2397   1.641   2.970   2.294
  787SOL    HW1 2398   1.727   2.972   2.242
  787SOL    HW2 2399   1.655   3.017   2.382
  788SOL     OW 2400   0.113   2.599   3.459
  788SOL    HW1 2401   0.201   2.586   3.504
  788SOL    HW2 2402   0.100   2.696   3.437
  789SOL     OW 2403   0.613   3.227   2.588
  789SOL    HW1 2404   0.564   3.140   2.597
  789SOL    HW2 2405   0.590   3.270   2.501
  790SOL     OW 2406   1.293   3.090   3.285
  790SOL    HW1 2407   1.330   3.017   3.227
  790SOL    HW2 2408   1.345   3.095   3.370
  791SOL     OW 2409   0.809   1.866   2.364
  791SOL    HW1 2410   0.849   1.957   2.355
  791SOL    HW2 2411   0.709   1.874   2.370
  792SOL     OW 2412   0.197   2.838   3.126
  792SOL    HW1 2413   0.286   2.793   3.112
  792SOL    HW2 2414   0.124   2.773   3.107
  793SOL     OW 2415   1.525   2.861   2.052
  793SOL    HW1 2416   1.462   2.785   2.065
  793SOL    HW2 2417   1.573   2.879   2.138
  794SOL     OW 2418   1.187   3.654   3.478
  794SOL    HW1 2419   1.211   3.714   3.402
  794SOL    HW2 2420   1.194   3.559   3.448
  795SOL     OW 2421   0.317   2.113   3.663
  795SOL    HW1 2422   0.388   2.184   3.669
  795SOL    HW2 2423   0.229   2.152   3.691
  796SOL     OW 2424   1.466   3.279   2.815
  796SOL    HW1 2425   1.407   3.285   2.895
  796SOL    HW2 2426   1.451   3.191   2.769
  797SOL     OW 2427   1.667   3.576   2.434
  797SOL    HW1 2428   1.626   3.553   2.346
  797SOL    HW2 2429   1.649   3.502   2.499
  798SOL     OW 2430   0.598   2.591   2.132
  798SOL    HW1 2431   0.622   2.660   2.064
  798SOL    HW2 2432   0.520   2.624   2.186
  799SOL     OW 2433   1.281   2.207   2.806
  799SOL    HW1 2434   1.195   2.157   2.793
  799SOL    HW2 2435   1.343   2.153   2.862
  800SOL     OW 2436   1.576   3.524   2.169
  800SOL    HW1 2437   1.665   3.570   2.172
  800SOL    HW2 2438   1.555   3.500   2.074
  801SOL     OW 2439   0.807   2.467   3.327
  801SOL    HW1 2440   0.760   2.464   3.416
  801SOL    HW2 2441   0.756   2.412   3.261
  802SOL     OW 2442   1.394   2.331   3.536
  802SOL    HW1 2443   1.374   2.374   3.624
  802SOL    HW2 2444   1.472   2.269   3.545
  803SOL     OW 2445   0.973   2.752   3.434
  803SOL    HW1 2446   1.019   2.668   3.405
  803SOL    HW2 2447   0.917   2.786   3.359
  804SOL     OW 2448   0.991   2.272   3.104
  804SOL    HW1 2449   0.914   2.306   3.158
  804SOL    HW2 2450   0.957   2.221   3.025
  805SOL     OW 2451   1.041   2.563   2.291
  805SOL    HW1 2452   1.067   2.559   2.387
  805SOL    HW2 2453   0.956   2.512   2.277
  806SOL     OW 2454   0.076   2.673   2.651
  806SOL    HW1 2455   0.175   2.661   2.660
  806SOL    HW2 2456   0.052   2.768   2.672
  807SOL     OW 2457   0.130   3.683   3.433
  807SOL    HW1 2458   0.120   3.668   3.532
  807SOL    HW2 2459   0.044   3.719   3.397
  808SOL     OW 2460   0.865   2.210   2.057
  808SOL    HW1 2461   0.924   2.273   2.008
  808SOL    HW2 2462   0.884   2.116   2.028
  809SOL     OW 2463   1.719   2.447   3.693
  809SOL    HW1 2464   1.693   2.536   3.657
  809SOL    HW2 2465   1.717   2.379   3.620
  810SOL     OW 2466   1.362   3.006   2.407
  810SOL    HW1 2467   1.445   2.977   2.359
  810SOL    HW2 2468   1.313   3.073   2.351
  811SOL     OW 2469   0.550   2.058   2.747
  811SOL    HW1 2470   0.545   2.053   2.847
  811SOL    HW2 2471   0.552   2.154   2.718
  812SOL     OW 2472   1.008   3.318   2.339
  812SOL    HW1 2473   0.962   3.390   2.287
  812SOL    HW2 2474   1.004   3.338   2.437
  813SOL     OW 2475   0.351   3.663   2.715
  813SOL    HW1 2476   0.401   3.577   2.721
  813SOL    HW2 2477   0.416   3.740   2.712
  814SOL     OW 2478   1.795   2.928   2.735
  814SOL    HW1 2479   1.733   2.913   2.659
  814SOL    HW2 2480   1.743   2.939   2.820
  815SOL     OW 2481   1.227   3.412   3.368
  815SOL    HW1 2482   1.233   3.335   3.432
  815SOL    HW2 2483   1.175   3.386   3.288
  816SOL     OW 2484   0.321   2.805   2.104
  816SOL    HW1 2485   0.403   2.844   2.062
  816SOL    HW2 2486   0.294   2.723   2.055
  817SOL     OW 2487   1.458   2.597   2.590
  817SOL    HW1 2488   1.453   2.532   2.665
  817SOL    HW2 2489   1.538   2.656   2.603
  818SOL     OW 2490   0.461   3.128   3.589
  818SOL    HW1 2491   0.411   3.129   3.503
  818SOL    HW2 2492   0.398   3.110   3.665
  819SOL     OW 2493   1.111   3.638   2.099
  819SOL    HW1 2494   1.051   3.576   2.149
  819SOL    HW2 2495   1.142   3.594   2.014
  820SOL     OW 2496   0.202   2.147   3.360
  820SOL    HW1 2497   0.122   2.207   3.347
  820SOL    HW2 2498   0.192   2.098   3.446
  821SOL     OW 2499   1.632   3.239   1.943
  821SOL    HW1 2500   1.600   3.333   1.933
  821SOL    HW2 2501   1.556   3.176   1.931
  822SOL     OW 2502   0.464   3.605   2.185
  822SOL    HW1 2503   0.497   3.644   2.271
  822SOL    HW2 2504   0.540   3.598   2.120
  823SOL     OW 2505   1.400   1.969   2.288
  823SOL    HW1 2506   1.376   1.932   2.198
  823SOL    HW2 2507   1.499   1.985   2.292
  824SOL     OW 2508   0.249   3.647   3.103
  824SOL    HW1 2509   0.306   3.582   3.153
  824SOL    HW2 2510   0.233   3.614   3.010
  825SOL     OW 2511   0.940   3.560   2.766
  825SOL    HW1 2512   1.020   3.503   2.787
  825SOL    HW2 2513   0.891   3.520   2.689
  826SOL     OW 2514   0.382   2.562   2.342
  826SOL    HW1 2515   0.427   2.472   2.339
  826SOL    HW2 2516   0.288   2.551   2.375
  827SOL     OW 2517   1.547   2.084   3.591
  827SOL    HW1 2518   1.542   2.121   3.683
  827SOL    HW2 2519   1.475   2.015   3.579
  828SOL     OW 2520   0.614   1.984   1.979
  828SOL    HW1 2521   0.712   1.962   1.986
  828SOL    HW2 2522   0.583   1.967   1.886
  829SOL     OW 2523   0.781   2.126   3.611
  829SOL    HW1 2524   0.848   2.065   3.654
  829SOL    HW2 2525   0.708   2.145   3.676
  830SOL     OW 2526   0.888   3.376   3.057
  830SOL    HW1 2527   0.865   3.351   2.963
  830SOL    HW2 2528   0.949   3.307   3.096
  831SOL     OW 2529   1.351   2.452   3.295
  831SOL    HW1 2530   1.379   2.409   3.380
  831SOL    HW2 2531   1.376   2.548   3.296
  832SOL     OW 2532   0.803   3.264   2.786
  832SOL    HW1 2533   0.893   3.278   2.744
  832SOL    HW2 2534   0.732   3.266   2.715
  833SOL     OW 2535   0.922   2.365   2.761
  833SOL    HW1 2536   0.897   2.356   2.665
  833SOL    HW2 2537   0.970   2.283   2.792
  834SOL     OW 2538   0.539   1.926   2.374
  834SOL    HW1 2539   0.458   1.927   2.432
  834SOL    HW2 2540   0.542   2.009   2.319
  835SOL     OW 2541   1.434   3.050   1.903
  835SOL    HW1 2542   1.466   2.974   1.960
  835SOL    HW2 2543   1.342   3.077   1.933
  836SOL     OW 2544   0.297   1.897   2.033
  836SOL    HW1 2545   0.346   1.981   2.012
  836SOL    HW2 2546   0.359   1.832   2.078
  837SOL     OW 2547   0.935   2.098   2.342
  837SOL    HW1 2548   0.887   2.139   2.264
  837SOL    HW2 2549   1.034   2.096   2.323
  838SOL     OW 2550   1.076   2.545   3.326
  838SOL    HW1 2551   0.996   2.484   3.329
  838SOL    HW2 2552   1.157   2.492   3.302
  839SOL     OW 2553   1.227   3.432   2.655
  839SOL    HW1 2554   1.248   3.506   2.590
  839SOL    HW2 2555   1.295   3.432   2.728
  840SOL     OW 2556   0.459   3.014   2.603
  840SOL    HW1 2557   0.388   2.987   2.668
  840SOL    HW2 2558   0.433   2.986   2.510
  841SOL     OW 2559   1.271   3.659   2.453
  841SOL    HW1 2560   1.315   3.723   2.389
  841SOL    HW2 2561   1.221   3.711   2.523
  842SOL     OW 2562   1.032   2.411   1.878
  842SOL    HW1 2563   0.991   2.493   1.839
  842SOL    HW2 2564   1.096   2.437   1.951
  843SOL     OW 2565   0.078   2.418   3.248
  843SOL    HW1 2566   0.170   2.417   3.207
  843SOL    HW2 2567   0.072   2.492   3.315
  844SOL     OW 2568   0.561   2.084   3.009
  844SOL    HW1 2569   0.599   2.000   3.046
  844SOL    HW2 2570   0.473   2.103   3.053
  845SOL     OW 2571   0.866   2.316   2.504
  845SOL    HW1 2572   0.834   2.388   2.442
  845SOL    HW2 2573   0.890   2.235   2.451
  846SOL     OW 2574   1.017   1.901   2.615
  846SOL    HW1 2575   0.945   1.906   2.546
  846SOL    HW2 2576   0.993   1.832   2.684
  847SOL     OW 2577   1.429   3.035   2.729
  847SOL    HW1 2578   1.374   2.951   2.722
  847SOL    HW2 2579   1.455   3.064   2.637
  848SOL     OW 2580   1.466   2.452   2.854
  848SOL    HW1 2581   1.436   2.357   2.861
  848SOL    HW2 2582   1.539   2.468   2.920
  849SOL     OW 2583   1.857   2.695   2.239
  849SOL    HW1 2584   1.899   2.631   2.303
  849SOL    HW2 2585   1.819   2.644   2.161
  850SOL     OW 2586   0.488   3.247   2.036
  850SOL    HW1 2587   0.401   3.232   2.083
  850SOL    HW2 2588   0.471   3.273   1.941
  851SOL     OW 2589   1.664   3.142   2.519
  851SOL    HW1 2590   1.763   3.150   2.533
  851SOL    HW2 2591   1.619   3.226   2.550
  852SOL     OW 2592   1.390   2.437   1.940
  852SOL    HW1 2593   1.336   2.416   2.021
  852SOL    HW2 2594   1.481   2.396   1.949
  853SOL     OW 2595   0.527   2.118   2.190
  853SOL    HW1 2596   0.554   2.059   2.115
  853SOL    HW2 2597   0.527   2.213   2.159
  854SOL     OW 2598   1.754   3.085   3.450
  854SOL    HW1 2599   1.845   3.046   3.437
  854SOL    HW2 2600   1.762   3.181   3.474
  855SOL     OW 2601   1.064   3.209   3.202
  855SOL    HW1 2602   0.984   3.186   3.257
  855SOL    HW2 2603   1.147   3.183   3.251
  856SOL     OW 2604   1.592   3.491   3.487
  856SOL    HW1 2605   1.619   3.525   3.397
  856SOL    HW2 2606   1.671   3.453   3.533
  857SOL     OW 2607   1.111   3.057   2.962
  857SOL    HW1 2608   1.071   3.101   3.043
  857SOL    HW2 2609   1.070   3.094   2.879
  858SOL     OW 2610   1.638   2.961   2.941
  858SOL    HW1 2611   1.643   3.042   3.000
  858SOL    HW2 2612   1.552   2.963   2.890
  859SOL     OW 2613   0.915   1.951   3.264
  859SOL    HW1 2614   0.940   1.931   3.169
  859SOL    HW2 2615   0.987   2.007   3.306
  860SOL     OW 2616   0.980   2.978   3.581
  860SOL    HW1 2617   0.881   2.984   3.591
  860SOL    HW2 2618   1.003   2.898   3.525
  861SOL     OW 2619   0.705   2.912   2.230
  861SOL    HW1 2620   0.691   2.919   2.329
  861SOL    HW2 2621   0.789   2.861   2.212
  862SOL     OW 2622   0.410   2.675   3.113
  862SOL    HW1 2623   0.496   2.687   3.163
  862SOL    HW2 2624   0.368   2.588   3.140
  863SOL     OW 2625   1.274   2.248   3.124
  863SOL    HW1 2626   1.295   2.322   3.188
  863SOL    HW2 2627   1.185   2.265   3.081
  864SOL     OW 2628   0.064   3.426   3.193
  864SOL    HW1 2629   0.018   3.508   3.159
  864SOL    HW2 2630   0.162   3.445   3.202
  865SOL     OW 2631   0.367   2.962   2.363
  865SOL    HW1 2632   0.360   3.045   2.307
  865SOL    HW2 2633   0.371   2.882   2.303
  866SOL     OW 2634   0.566   2.399   2.727
  866SOL    HW1 2635   0.578   2.465   2.653
  866SOL    HW2 2636   0.612   2.433   2.810
  867SOL     OW 2637   1.252   3.210   2.250
  867SOL    HW1 2638   1.302   3.287   2.290
  867SOL    HW2 2639   1.157   3.212   2.282
  868SOL     OW 2640   1.272   3.307   3.004
  868SOL    HW1 2641   1.319   3.320   3.091
  868SOL    HW2 2642   1.206   3.233   3.013
  869SOL     OW 2643   0.354   3.372   3.191
  869SOL    HW1 2644   0.333   3.328   3.104
  869SOL    HW2 2645   0.451   3.398   3.194
  870SOL     OW 2646   0.402   2.613   3.460
  870SOL    HW1 2647   0.470   2.668   3.413
  870SOL    HW2 2648   0.442   2.525   3.487
  871SOL     OW 2649   1.587   2.641   3.532
  871SOL    HW1 2650   1.495   2.679   3.527
  871SOL    HW2 2651   1.647   2.688   3.467
  872SOL     OW 2652   1.013   1.967   3.632
  872SOL    HW1 2653   1.019   2.052   3.580
  872SOL    HW2 2654   1.045   1.891   3.575
  873SOL     OW 2655   0.504   1.912   3.602
  873SOL    HW1 2656   0.462   1.855   3.532
  873SOL    HW2 2657   0.438   1.981   3.634
  874SOL     OW 2658   0.573   2.732   2.891
  874SOL    HW1 2659   0.617   2.821   2.882
  874SOL    HW2 2660   0.510   2.732   2.968
  875SOL     OW 2661   1.360   2.724   2.907
  875SOL    HW1 2662   1.285   2.724   2.841
  875SOL    HW2 2663   1.397   2.632   2.916
  876SOL     OW 2664   1.209   2.387   2.137
  876SOL    HW1 2665   1.222   2.303   2.191
  876SOL    HW2 2666   1.180   2.461   2.197
  877SOL     OW 2667   0.307   2.075   3.093
  877SOL    HW1 2668   0.284   2.112   3.183
  877SOL    HW2 2669   0.277   1.980   3.087
  878SOL     OW 2670   0.037   3.172   3.144
  878SOL    HW1 2671   0.090   3.123   3.212
  878SOL    HW2 2672   0.059   3.270   3.149
  879SOL     OW 2673   0.732   2.496   2.926
  879SOL    HW1 2674   0.791   2.470   2.850
  879SOL    HW2 2675   0.704   2.592   2.915
  880SOL     OW 2676   1.728   2.797   3.716
  880SOL    HW1 2677   1.682   2.790   3.627
  880SOL    HW2 2678   1.666   2.841   3.782
  881SOL     OW 2679   0.307   1.925   2.480
  881SOL    HW1 2680   0.296   2.019   2.513
  881SOL    HW2 2681   0.302   1.862   2.557
  882SOL     OW 2682   1.023   2.628   2.828
  882SOL    HW1 2683   1.038   2.649   2.924
  882SOL    HW2 2684   0.993   2.533   2.819
  883SOL     OW 2685   0.980   3.435   3.562
  883SOL    HW1 2686   0.960   3.479   3.474
  883SOL    HW2 2687   1.019   3.344   3.546
  884SOL     OW 2688   1.859   3.380   3.467
  884SOL    HW1 2689   1.873   3.407   3.372
  884SOL    HW2 2690   1.942   3.402   3.520
  885SOL     OW 2691   0.350   2.760   3.666
  885SOL    HW1 2692   0.426   2.804   3.714
  885SOL    HW2 2693   0.385   2.713   3.584
  886SOL     OW 2694   1.540   2.136   1.987
  886SOL    HW1 2695   1.479   2.061   2.010
  886SOL    HW2 2696   1.562   2.188   2.070
  887SOL     OW 2697   1.303   2.700   1.904
  887SOL    HW1 2698   1.337   2.607   1.919
  887SOL    HW2 2699   1.321   2.727   1.809
  888SOL     OW 2700   1.068   3.195   2.711
  888SOL    HW1 2701   1.075   3.111   2.656
  888SOL    HW2 2702   1.130   3.264   2.675
  889SOL     OW 2703   0.319   2.672   2.811
  889SOL    HW1 2704   0.412   2.708   2.816
  889SOL    HW2 2705   0.313   2.587   2.863
  890SOL     OW 2706   0.339   2.371   2.868
  890SOL    HW1 2707   0.287   2.288   2.851
  890SOL    HW2 2708   0.416   2.376   2.804
  891SOL     OW 2709   1.138   2.242   3.540
  891SOL    HW1 2710   1.093   2.305   3.604
  891SOL    HW2 2711   1.231   2.273   3.523
  892SOL     OW 2712   1.160   2.069   3.339
  892SOL    HW1 2713   1.160   2.133   3.416
  892SOL    HW2 2714   1.188   2.117   3.256
  893SOL     OW 2715   0.008   3.188   2.062
  893SOL    HW1 2716  -0.085   3.209   2.031
  893SOL    HW2 2717   0.018   3.089   2.075
  894SOL     OW 2718   0.088   3.663   2.789
  894SOL    HW1 2719   0.046   3.577   2.762
  894SOL    HW2 2720   0.182   3.666   2.755
  895SOL     OW 2721   0.504   3.430   2.772
  895SOL    HW1 2722   0.570   3.504   2.781
  895SOL    HW2 2723   0.548   3.351   2.730
  896SOL     OW 2724   1.002   2.658   3.100
  896SOL    HW1 2725   1.043   2.626   3.186
  896SOL    HW2 2726   0.906   2.631   3.097
  897SOL     OW 2727   0.040   2.406   2.976
  897SOL    HW1 2728   0.125   2.373   2.935
  897SOL    HW2 2729   0.053   2.421   3.074
  898SOL     OW 2730   0.189   2.382   3.584
  898SOL    HW1 2731   0.248   2.342   3.514
  898SOL    HW2 2732   0.131   2.453   3.543
  899SOL     OW 2733   1.369   2.812   3.522
  899SOL    HW1 2734   1.408   2.901   3.542
  899SOL    HW2 2735   1.379   2.792   3.425
  900SOL     OW 2736   0.815   2.434   2.187
  900SOL    HW1 2737   0.822   2.345   2.141
  900SOL    HW2 2738   0.721   2.468   2.179
  901SOL     OW 2739   1.657   2.466   3.068
  901SOL    HW1 2740   1.619   2.397   3.130
  901SOL    HW2 2741   1.739   2.430   3.024
  902SOL     OW 2742   0.252   3.426   3.606
  902SOL    HW1 2743   0.222   3.483   3.682
  902SOL    HW2 2744   0.245   3.329   3.632
  903SOL     OW 2745   0.671   2.326   3.131
  903SOL    HW1 2746   0.637   2.237   3.101
  903SOL    HW2 2747   0.697   2.380   3.051
  904SOL     OW 2748   0.930   3.540   3.327
  904SOL    HW1 2749   0.906   3.522   3.232
  904SOL    HW2 2750   0.960   3.634   3.337
  905SOL     OW 2751   0.473   2.362   2.053
  905SOL    HW1 2752   0.534   2.442   2.057
  905SOL    HW2 2753   0.378   2.393   2.060
  906SOL     OW 2754   0.159   2.999   3.328
  906SOL    HW1 2755   0.181   2.938   3.404
  906SOL    HW2 2756   0.169   2.950   3.242
  907SOL     OW 2757   1.347   2.921   3.096
  907SOL    HW1 2758   1.371   2.858   3.022
  907SOL    HW2 2759   1.257   2.961   3.078
  908SOL     OW 2760   1.302   2.717   2.171
  908SOL    HW1 2761   1.216   2.686   2.213
  908SOL    HW2 2762   1.298   2.703   2.072
  909SOL     OW 2763   1.759   3.609   3.016
  909SOL    HW1 2764   1.820   3.639   2.943
  909SOL    HW2 2765   1.721   3.520   2.994
  910SOL     OW 2766   1.252   3.593   2.990
  910SOL    HW1 2767   1.336   3.598   2.936
  910SOL    HW2 2768   1.229   3.497   3.008
  911SOL     OW 2769   0.083   3.120   2.884
  911SOL    HW1 2770   0.078   3.119   2.984
  911SOL    HW2 2771   0.000   3.079   2.846
  912SOL     OW 2772   0.688   3.524   3.578
  912SOL    HW1 2773   0.632   3.605   3.587
  912SOL    HW2 2774   0.740   3.528   3.492
  913SOL     OW 2775   1.726   1.997   2.385
  913SOL    HW1 2776   1.799   1.980   2.318
  913SOL    HW2 2777   1.695   1.910   2.423
  914SOL     OW 2778   1.388   3.435   2.339
  914SOL    HW1 2779   1.455   3.447   2.265
  914SOL    HW2 2780   1.348   3.524   2.362
  915SOL     OW 2781   0.130   3.656   3.713
  915SOL    HW1 2782   0.089   3.582   3.766
  915SOL    HW2 2783   0.194   3.707   3.771
  916SOL     OW 2784   1.280   2.789   2.534
  916SOL    HW1 2785   1.340   2.708   2.536
  916SOL    HW2 2786   1.320   2.858   2.474
  917SOL     OW 2787   0.830   3.135   3.284
  917SOL    HW1 2788   0.825   3.168   3.379
  917SOL    HW2 2789   0.744   3.154   3.238
  918SOL     OW 2790   0.672   3.478   2.016
  918SOL    HW1 2791   0.681   3.488   1.917
  918SOL    HW2 2792   0.632   3.389   2.037
  919SOL     OW 2793   1.650   3.582   3.256
  919SOL    HW1 2794   1.703   3.592   3.172
  919SOL    HW2 2795   1.623   3.672   3.290
  920SOL     OW 2796   1.841   2.037   2.825
  920SOL    HW1 2797   1.880   1.952   2.789
  920SOL    HW2 2798   1.743   2.039   2.806
  921SOL     OW 2799   0.263   2.188   2.582
  921SOL    HW1 2800   0.184   2.239   2.548
  921SOL    HW2 2801   0.254   2.173   2.680
  922SOL     OW 2802   1.194   3.474   1.893
  922SOL    HW1 2803   1.200   3.381   1.930
  922SOL    HW2 2804   1.135   3.474   1.813
  923SOL     OW 2805   0.822   2.864   3.234
  923SOL    HW1 2806   0.862   2.863   3.142
  923SOL    HW2 2807   0.832   2.956   3.274
  924SOL     OW 2808   0.916   2.772   2.153
  924SOL    HW1 2809   0.979   2.810   2.085
  924SOL    HW2 2810   0.956   2.689   2.192
  925SOL     OW 2811   1.504   3.469   1.906
  925SOL    HW1 2812   1.412   3.506   1.913
  925SOL    HW2 2813   1.542   3.489   1.816
  926SOL     OW 2814   0.372   3.150   3.352
  926SOL    HW1 2815   0.359   3.243   3.318
  926SOL    HW2 2816   0.288   3.098   3.339
  927SOL     OW 2817   1.614   3.154   3.151
  927SOL    HW1 2818   1.674   3.157   3.231
  927SOL    HW2 2819   1.539   3.218   3.164
  928SOL     OW 2820   1.039   2.960   2.558
  928SOL    HW1 2821   0.969   2.913   2.612
  928SOL    HW2 2822   1.098   2.892   2.515
  929SOL     OW 2823   1.014   2.098   2.833
  929SOL    HW1 2824   1.006   2.062   2.740
  929SOL    HW2 2825   1.012   2.022   2.898
  930SOL     OW 2826   0.590   3.349   2.353
  930SOL    HW1 2827   0.632   3.291   2.283
  930SOL    HW2 2828   0.546   3.428   2.309
  931SOL     OW 2829   1.709   2.247   3.243
  931SOL    HW1 2830   1.782   2.316   3.247
  931SOL    HW2 2831   1.737   2.172   3.184
  932SOL     OW 2832   0.255   3.210   2.152
  932SOL    HW1 2833   0.159   3.211   2.125
  932SOL    HW2 2834   0.267   3.263   2.236
  933SOL     OW 2835   0.105   2.875   3.588
  933SOL    HW1 2836   0.028   2.842   3.642
  933SOL    HW2 2837   0.190   2.845   3.630
  934SOL     OW 2838   0.672   2.065   3.351
  934SOL    HW1 2839   0.762   2.049   3.311
  934SOL    HW2 2840   0.680   2.070   3.450
  935SOL     OW 2841   0.075   2.207   1.895
  935SOL    HW1 2842  -0.017   2.179   1.866
  935SOL    HW2 2843   0.106   2.284   1.839
  936SOL     OW 2844   1.440   2.718   3.260
  936SOL    HW1 2845   1.383   2.770   3.197
  936SOL    HW2 2846   1.536   2.730   3.236
  937SOL     OW 2847   0.072   2.028   2.180
  937SOL    HW1 2848   0.055   2.111   2.126
  937SOL    HW2 2849   0.162   1.991   2.158
  938SOL     OW 2850   1.183   3.197   1.981
  938SOL    HW1 2851   1.084   3.186   1.983
  938SOL    HW2 2852   1.217   3.212   2.074
  939SOL     OW 2853   0.613   2.704   3.293
  939SOL    HW1 2854   0.669   2.785   3.276
  939SOL    HW2 2855   0.672   2.624   3.296
  940SOL     OW 2856   1.493   3.629   2.821
  940SOL    HW1 2857   1.526   3.693   2.752
  940SOL    HW2 2858   1.559   3.623   2.896
  941SOL     OW 2859   0.716   2.427   3.570
  941SOL    HW1 2860   0.735   2.492   3.644
  941SOL    HW2 2861   0.776   2.347   3.579
  942SOL     OW 2862   1.450   3.082   3.495
  942SOL    HW1 2863   1.441   3.072   3.594
  942SOL    HW2 2864   1.546   3.075   3.469
  943SOL     OW 2865   0.390   3.603   3.422
  943SOL    HW1 2866   0.299   3.644   3.420
  943SOL    HW2 2867   0.383   3.509   3.454
  944SOL     OW 2868   1.674   2.745   3.116
  944SOL    HW1 2869   1.647   2.656   3.079
  944SOL    HW2 2870   1.675   2.813   3.043
  945SOL     OW 2871   1.225   2.187   2.311
  945SOL    HW1 2872   1.290   2.113   2.300
  945SOL    HW2 2873   1.245   2.237   2.395
  946SOL     OW 2874   0.594   2.607   2.514
  946SOL    HW1 2875   0.644   2.692   2.495
  946SOL    HW2 2876   0.506   2.609   2.466
  947SOL     OW 2877   1.777   2.204   3.504
  947SOL    HW1 2878   1.760   2.235   3.410
  947SOL    HW2 2879   1.693   2.167   3.542
  948SOL     OW 2880   1.730   2.796   3.379
  948SOL    HW1 2881   1.768   2.887   3.394
  948SOL    HW2 2882   1.722   2.779   3.280
  949SOL     OW 2883   0.859   3.236   1.878
  949SOL    HW1 2884   0.813   3.251   1.966
  949SOL    HW2 2885   0.903   3.321   1.848
  950SOL     OW 2886   0.661   3.652   2.815
  950SOL    HW1 2887   0.615   3.740   2.802
  950SOL    HW2 2888   0.760   3.664   2.808
  951SOL     OW 2889   0.859   2.818   2.723
  951SOL    HW1 2890   0.913   2.749   2.771
  951SOL    HW2 2891   0.827   2.887   2.789
  952SOL     OW 2892   1.083   2.846   1.949
  952SOL    HW1 2893   1.060   2.899   1.867
  952SOL    HW2 2894   1.164   2.790   1.930
  953SOL     OW 2895   1.861   3.431   2.713
  953SOL    HW1 2896   1.790   3.419   2.643
  953SOL    HW2 2897   1.862   3.352   2.773
  954SOL     OW 2898   0.221   3.176   3.706
  954SOL    HW1 2899   0.156   3.103   3.685
  954SOL    HW2 2900   0.225   3.190   3.804
  955SOL     OW 2901   0.079   3.102   2.515
  955SOL    HW1 2902   0.078   3.055   2.603
  955SOL    HW2 2903   0.161   3.074   2.464
  956SOL     OW 2904   0.672   3.253   3.486
  956SOL    HW1 2905   0.594   3.203   3.524
  956SOL    HW2 2906   0.669   3.348   3.517
  957SOL     OW 2907   1.824   2.054   3.089
  957SOL    HW1 2908   1.820   1.964   3.133
  957SOL    HW2 2909   1.827   2.043   2.990
  958SOL     OW 2910   0.428   2.286   2.382
  958SOL    HW1 2911   0.458   2.214   2.320
  958SOL    HW2 2912   0.389   2.246   2.465
  959SOL     OW 2913   1.705   3.349   2.966
  959SOL    HW1 2914   1.612   3.324   2.939
  959SOL    HW2 2915   1.731   3.299   3.048
  960SOL     OW 2916   0.317   2.409   3.142
  960SOL    HW1 2917   0.355   2.350   3.214
  960SOL    HW2 2918   0.357   2.383   3.054
  961SOL     OW 2919   0.812   3.448   2.549
  961SOL    HW1 2920   0.844   3.458   2.455
  961SOL    HW2 2921   0.733   3.386   2.551
  962SOL     OW 2922   1.424   2.076   2.974
  962SOL    HW1 2923   1.476   2.011   3.029
  962SOL    HW2 2924   1.375   2.139   3.035
  963SOL     OW 2925   1.001   1.896   3.016
  963SOL    HW1 2926   0.938   1.824   2.985
  963SOL    HW2 2927   1.094   1.860   3.016
  964SOL     OW 2928   0.770   3.192   2.163
  964SOL    HW1 2929   0.724   3.105   2.180
  964SOL    HW2 2930   0.861   3.189   2.204
  965SOL     OW 2931   0.618   3.429   3.146
  965SOL    HW1 2932   0.613   3.511   3.203
  965SOL    HW2 2933   0.707   3.426   3.101
  966SOL     OW 2934   1.352   1.914   2.030
  966SOL    HW1 2935   1.387   1.873   1.946
  966SOL    HW2 2936   1.262   1.876   2.050
  967SOL     OW 2937   1.300   2.315   2.553
  967SOL    HW1 2938   1.241   2.395   2.557
  967SOL    HW2 2939   1.315   2.280   2.646
  968SOL     OW 2940   1.593   2.083   2.744
  968SOL    HW1 2941   1.509   2.082   2.798
  968SOL    HW2 2942   1.595   2.166   2.688
  969SOL     OW 2943   0.039   2.939   2.162
  969SOL    HW1 2944   0.138   2.928   2.153
  969SOL    HW2 2945  -0.001   2.853   2.194
  970SOL     OW 2946   0.875   3.508   2.199
  970SOL    HW1 2947   0.798   3.473   2.145
  970SOL    HW2 2948   0.843   3.579   2.261
  971SOL     OW 2949   0.230   2.490   3.837
  971SOL    HW1 2950   0.137   2.488   3.874
  971SOL    HW2 2951   0.231   2.451   3.745
  972SOL     OW 2952   0.225   2.137   4.720
  972SOL    HW1 2953   0.260   2.120   4.812
  972SOL    HW2 2954   0.137   2.092   4.708
  973SOL     OW 2955   0.019   2.230   4.371
  973SOL    HW1 2956  -0.063   2.273   4.410
  973SOL    HW2 2957  -0.009   2.157   4.308
  974SOL     OW 2958   1.555   3.373   4.427
  974SOL    HW1 2959   1.498   3.357   4.508
  974SOL    HW2 2960   1.496   3.383   4.347
  975SOL     OW 2961   1.135   2.565   4.441
  975SOL    HW1 2962   1.192   2.643   4.416
  975SOL    HW2 2963   1.075   2.591   4.517
  976SOL     OW 2964   1.755   2.469   3.955
  976SOL    HW1 2965   1.743   2.456   3.856
  976SOL    HW2 2966   1.725   2.388   4.004
  977SOL     OW 2967   0.768   3.006   4.747
  977SOL    HW1 2968   0.690   3.023   4.807
  977SOL    HW2 2969   0.802   3.093   4.711
  978SOL     OW 2970   0.685   2.874   4.389
  978SOL    HW1 2971   0.754   2.858   4.459
  978SOL    HW2 2972   0.612   2.931   4.427
  979SOL     OW 2973   0.335   3.297   4.785
  979SOL    HW1 2974   0.257   3.266   4.732
  979SOL    HW2 2975   0.393   3.355   4.728
  980SOL     OW 2976   1.603   2.309   4.461
  980SOL    HW1 2977   1.529   2.355   4.411
  980SOL    HW2 2978   1.654   2.377   4.514
  981SOL     OW 2979   0.231   3.575   4.207
  981SOL    HW1 2980   0.265   3.652   4.261
  981SOL    HW2 2981   0.275   3.575   4.117
  982SOL     OW 2982   0.230   3.296   4.262
  982SOL    HW1 2983   0.204   3.392   4.262
  982SOL    HW2 2984   0.159   3.242   4.307
  983SOL     OW 2985   0.240   2.953   4.610
  983SOL    HW1 2986   0.254   2.869   4.662
  983SOL    HW2 2987   0.185   3.017   4.665
  984SOL     OW 2988   0.606   2.826   3.847
  984SOL    HW1 2989   0.613   2.910   3.793
  984SOL    HW2 2990   0.652   2.839   3.935
  985SOL     OW 2991   0.122   2.505   4.287
  985SOL    HW1 2992   0.077   2.417   4.304
  985SOL    HW2 2993   0.121   2.559   4.371
  986SOL     OW 2994   1.842   3.629   4.083
  986SOL    HW1 2995   1.896   3.600   4.163
  986SOL    HW2 2996   1.872   3.719   4.054
  987SOL     OW 2997   0.027   3.458   3.841
  987SOL    HW1 2998   0.008   3.362   3.862
  987SOL    HW2 2999  -0.006   3.516   3.916
  988SOL     OW 3000   1.689   2.784   4.336
  988SOL    HW1 3001   1.784   2.755   4.344
  988SOL    HW2 3002   1.681   2.849   4.261
  989SOL     OW 3003   1.641   2.970   4.156
  989SOL    HW1 3004   1.727   2.972   4.104
  989SOL    HW2 3005   1.655   3.017   4.244
  990SOL     OW 3006   0.613   3.227   4.450
  990SOL    HW1 3007   0.564   3.140   4.459
  990SOL    HW2 3008   0.590   3.270   4.363
  991SOL     OW 3009   0.809   1.866   4.226
  991SOL    HW1 3010   0.849   1.957   4.217
  991SOL    HW2 3011   0.709   1.874   4.232
  992SOL     OW 3012   1.525   2.861   3.914
  992SOL    HW1 3013   1.462   2.785   3.927
  992SOL    HW2 3014   1.573   2.879   4.000
  993SOL     OW 3015   1.466   3.279   4.677
  993SOL    HW1 3016   1.407   3.285   4.757
  993SOL    HW2 3017   1.451   3.191   4.631
  994SOL     OW 3018   1.667   3.576   4.296
  994SOL    HW1 3019   1.626   3.553   4.208
  994SOL    HW2 3020   1.649   3.502   4.361
  995SOL     OW 3021   0.598   2.591   3.994
  995SOL    HW1 3022   0.622   2.660   3.926
  995SOL    HW2 3023   0.520   2.624   4.048
  996SOL     OW 3024   1.281   2.207   4.668
  996SOL    HW1 3025   1.195   2.157   4.655
  996SOL    HW2 3026   1.343   2.153   4.724
  997SOL     OW 3027   1.576   3.524   4.031
  997SOL    HW1 3028   1.665   3.570   4.034
  997SOL    HW2 3029   1.555   3.500   3.936
  998SOL     OW 3030   1.041   2.563   4.153
  998SOL    HW1 3031   1.067   2.559   4.249
  998SOL    HW2 3032   0.956   2.512   4.139
  999SOL     OW 3033   0.076   2.673   4.513
  999SOL    HW1 3034   0.175   2.661   4.522
  999SOL    HW2 3035   0.052   2.768   4.534
 1000SOL     OW 3036   0.865   2.210   3.919
 1000SOL    HW1 3037   0.924   2.273   3.870
 1000SOL    HW2 3038   0.884   2.116   3.890
 1001SOL     OW 3039   1.362   3.006   4.269
 1001SOL    HW1 3040   1.445   2.977   4.221
 1001SOL    HW2 3041   1.313   3.073   4.213
 1002SOL     OW 3042   0.550   2.058   4.609
 1002SOL    HW1 3043   0.545   2.053   4.709
 1002SOL    HW2 3044   0.552   2.154   4.580
 1003SOL     OW 3045   1.008   3.318   4.201
 1003SOL    HW1 3046   0.962   3.390   4.149
 1003SOL    HW2 3047   1.004   3.338   4.299
 1004SOL     OW 3048   0.351   3.663   4.577
 1004SOL    HW1 3049   0.401   3.577   4.583
 1004SOL    HW2 3050   0.416   3.740   4.574
 1005SOL     OW 3051   1.795   2.928   4.597
 1005SOL    HW1 3052   1.733   2.913   4.521
 1005SOL    HW2 3053   1.743   2.939   4.682
 1006SOL     OW 3054   0.321   2.805   3.966
 1006SOL    HW1 3055   0.403   2.844   3.924
 1006SOL    HW2 3056   0.294   2.723   3.917
 1007SOL     OW 3057   1.458   2.597   4.452
 1007SOL    HW1 3058   1.453   2.532   4.527
 1007SOL    HW2 3059   1.538   2.656   4.465
 1008SOL     OW 3060   1.111   3.638   3.961
 1008SOL    HW1 3061   1.051   3.576   4.011
 1008SOL    HW2 3062   1.142   3.594   3.876
 1009SOL     OW 3063   1.632   3.239   3.805
 1009SOL    HW1 3064   1.600   3.333   3.795
 1009SOL    HW2 3065   1.556   3.176   3.793
 1010SOL     OW 3066   0.464   3.605   4.047
 1010SOL    HW1 3067   0.497   3.644   4.133
 1010SOL    HW2 3068   0.540   3.598   3.982
 1011SOL     OW 3069   1.400   1.969   4.150
 1011SOL    HW1 3070   1.376   1.932   4.060
 1011SOL    HW2 3071   1.499   1.985   4.154
 1012SOL     OW 3072   0.249   3.647   4.965
 1012SOL    HW1 3073   0.306   3.582   5.015
 1012SOL    HW2 3074   0.233   3.614   4.872
 1013SOL     OW 3075   0.940   3.560   4.628
 1013SOL    HW1 3076   1.020   3.503   4.649
 1013SOL    HW2 3077   0.891   3.520   4.551
 1014SOL     OW 3078   0.382   2.562   4.204
 1014SOL    HW1 3079   0.427   2.472   4.201
 1014SOL    HW2 3080   0.288   2.551   4.237
 1015SOL     OW 3081   0.614   1.984   3.841
 1015SOL    HW1 3082   0.712   1.962   3.848
 1015SOL    HW2 3083   0.583   1.967   3.748
 1016SOL     OW 3084   0.803   3.264   4.648
 1016SOL    HW1 3085   0.893   3.278   4.606
 1016SOL    HW2 3086   0.732   3.266   4.577
 1017SOL     OW 3087   0.922   2.365   4.623
 1017SOL    HW1 3088   0.897   2.356   4.527
 1017SOL    HW2 3089   0.970   2.283   4.654
 1018SOL     OW 3090   0.539   1.926   4.236
 1018SOL    HW1 3091   0.458   1.927   4.294
 1018SOL    HW2 3092   0.542   2.009   4.181
 1019SOL     OW 3093   1.434   3.050   3.765
 1019SOL    HW1 3094   1.466   2.974   3.822
 1019SOL    HW2 3095   1.342   3.077   3.795
 1020SOL     OW 3096   0.297   1.897   3.895
 1020SOL    HW1 3097   0.346   1.981   3.874
 1020SOL    HW2 3098   0.359   1.832   3.940
 1021SOL     OW 3099   0.935   2.098   4.204
 1021SOL    HW1 3100   0.887   2.139   4.126
 1021SOL    HW2 3101   1.034   2.096   4.185
 1022SOL     OW 3102   1.227   3.432   4.517
 1022SOL    HW1 3103   1.248   3.506   4.452
 1022SOL    HW2 3104   1.295   3.432   4.590
 1023SOL     OW 3105   0.459   3.014   4.465
 1023SOL    HW1 3106   0.388   2.987   4.530
 1023SOL    HW2 3107   0.433   2.986   4.372
 1024SOL     OW 3108   1.271   3.659   4.315
 1024SOL    HW1 3109   1.315   3.723   4.251
 1024SOL    HW2 3110   1.221   3.711   4.385
 1025SOL     OW 3111   1.032   2.411   3.740
 1025SOL    HW1 3112   0.991   2.493   3.701
 1025SOL    HW2 3113   1.096   2.437   3.813
 1026SOL     OW 3114   0.866   2.316   4.366
 1026SOL    HW1 3115   0.834   2.388   4.304
 1026SOL    HW2 3116   0.890   2.235   4.313
 1027SOL     OW 3117   1.017   1.901   4.477
 1027SOL    HW1 3118   0.945   1.906   4.408
 1027SOL    HW2 3119   0.993   1.832   4.546
 1028SOL     OW 3120   1.429   3.035   4.591
 1028SOL    HW1 3121   1.374   2.951   4.584
 1028SOL    HW2 3122   1.455   3.064   4.499
 1029SOL     OW 3123   1.466   2.452   4.716
 1029SOL    HW1 3124   1.436   2.357   4.723
 1029SOL    HW2 3125   1.539   2.468   4.782
 1030SOL     OW 3126   1.857   2.695   4.101
 1030SOL    HW1 3127   1.899   2.631   4.165
 1030SOL    HW2 3128   1.819   2.644   4.023
 1031SOL     OW 3129   0.488   3.247   3.898
 1031SOL    HW1 3130   0.401   3.232   3.945
 1031SOL    HW2 3131   0.471   3.273   3.803
 1032SOL     OW 3132   1.664   3.142   4.381
 1032SOL    HW1 3133   1.763   3.150   4.395
 1032SOL    HW2 3134   1.619   3.226   4.412
 1033SOL     OW 3135   1.390   2.437   3.802
 1033SOL    HW1 3136   1.336   2.416   3.883
 1033SOL    HW2 3137   1.481   2.396   3.811
 1034SOL     OW 3138   0.527   2.118   4.052
 1034SOL    HW1 3139   0.554   2.059   3.977
 1034SOL    HW2 3140   0.527   2.213   4.021
 1035SOL     OW 3141   1.638   2.961   4.803
 1035SOL    HW1 3142   1.643   3.042   4.862
 1035SOL    HW2 3143   1.552   2.963   4.752
 1036SOL     OW 3144   0.705   2.912   4.092
 1036SOL    HW1 3145   0.691   2.919   4.191
 1036SOL    HW2 3146   0.789   2.861   4.074
 1037SOL     OW 3147   0.367   2.962   4.225
 1037SOL    HW1 3148   0.360   3.045   4.169
 1037SOL    HW2 3149   0.371   2.882   4.165
 1038SOL     OW 3150   0.566   2.399   4.589
 1038SOL    HW1 3151   0.578   2.465   4.515
 1038SOL    HW2 3152   0.612   2.433   4.672
 1039SOL     OW 3153   1.252   3.210   4.112
 1039SOL    HW1 3154   1.302   3.287   4.152
 1039SOL    HW2 3155   1.157   3.212   4.144
 1040SOL     OW 3156   1.582   2.501   4.196
 1040SOL    HW1 3157   1.551   2.562   4.269
 1040SOL    HW2 3158   1.632   2.553   4.127
 1041SOL     OW 3159   0.573   2.732   4.753
 1041SOL    HW1 3160   0.617   2.821   4.744
 1041SOL    HW2 3161   0.510   2.732   4.830
 1042SOL     OW 3162   1.209   2.387   3.999
 1042SOL    HW1 3163   1.222   2.303   4.053
 1042SOL    HW2 3164   1.180   2.461   4.059
 1043SOL     OW 3165   0.307   2.075   4.955
 1043SOL    HW1 3166   0.284   2.112   5.045
 1043SOL    HW2 3167   0.277   1.980   4.949
 1044SOL     OW 3168   0.732   2.496   4.788
 1044SOL    HW1 3169   0.791   2.470   4.712
 1044SOL    HW2 3170   0.704   2.592   4.777
 1045SOL     OW 3171   0.307   1.925   4.342
 1045SOL    HW1 3172   0.296   2.019   4.375
 1045SOL    HW2 3173   0.302   1.862   4.419
 1046SOL     OW 3174   1.622   2.229   4.098
 1046SOL    HW1 3175   1.624   2.153   4.162
 1046SOL    HW2 3176   1.574   2.306   4.138
 1047SOL     OW 3177   1.540   2.136   3.849
 1047SOL    HW1 3178   1.479   2.061   3.872
 1047SOL    HW2 3179   1.562   2.188   3.932
 1048SOL     OW 3180   1.303   2.700   3.766
 1048SOL    HW1 3181   1.337   2.607   3.781
 1048SOL    HW2 3182   1.321   2.727   3.671
 1049SOL     OW 3183   1.068   3.195   4.573
 1049SOL    HW1 3184   1.075   3.111   4.518
 1049SOL    HW2 3185   1.130   3.264   4.537
 1050SOL     OW 3186   0.319   2.672   4.673
 1050SOL    HW1 3187   0.412   2.708   4.678
 1050SOL    HW2 3188   0.313   2.587   4.725
 1051SOL     OW 3189   0.339   2.371   4.730
 1051SOL    HW1 3190   0.287   2.288   4.713
 1051SOL    HW2 3191   0.416   2.376   4.666
 1052SOL     OW 3192   0.008   3.188   3.924
 1052SOL    HW1 3193  -0.085   3.209   3.893
 1052SOL    HW2 3194   0.018   3.089   3.937
 1053SOL     OW 3195   0.088   3.663   4.651
 1053SOL    HW1 3196   0.046   3.577   4.624
 1053SOL    HW2 3197   0.182   3.666   4.617
 1054SOL     OW 3198   0.504   3.430   4.634
 1054SOL    HW1 3199   0.570   3.504   4.643
 1054SOL    HW2 3200   0.548   3.351   4.592
 1055SOL     OW 3201   1.002   2.658   4.962
 1055SOL    HW1 3202   1.043   2.626   5.048
 1055SOL    HW2 3203   0.906   2.631   4.959
 1056SOL     OW 3204   0.815   2.434   4.049
 1056SOL    HW1 3205   0.822   2.345   4.003
 1056SOL    HW2 3206   0.721   2.468   4.041
 1057SOL     OW 3207   0.671   2.326   4.993
 1057SOL    HW1 3208   0.637   2.237   4.963
 1057SOL    HW2 3209   0.697   2.380   4.913
 1058SOL     OW 3210   0.473   2.362   3.915
 1058SOL    HW1 3211   0.534   2.442   3.919
 1058SOL    HW2 3212   0.378   2.393   3.922
 1059SOL     OW 3213   1.302   2.717   4.033
 1059SOL    HW1 3214   1.216   2.686   4.075
 1059SOL    HW2 3215   1.298   2.703   3.934
 1060SOL     OW 3216   1.759   3.609   4.878
 1060SOL    HW1 3217   1.820   3.639   4.805
 1060SOL    HW2 3218   1.721   3.520   4.856
 1061SOL     OW 3219   0.083   3.120   4.746
 1061SOL    HW1 3220   0.078   3.119   4.846
 1061SOL    HW2 3221   0.000   3.079   4.708
 1062SOL     OW 3222   1.726   1.997   4.247
 1062SOL    HW1 3223   1.799   1.980   4.180
 1062SOL    HW2 3224   1.695   1.910   4.285
 1063SOL     OW 3225   1.388   3.435   4.201
 1063SOL    HW1 3226   1.455   3.447   4.127
 1063SOL    HW2 3227   1.348   3.524   4.224
 1064SOL     OW 3228   1.280   2.789   4.396
 1064SOL    HW1 3229   1.340   2.708   4.398
 1064SOL    HW2 3230   1.320   2.858   4.336
 1065SOL     OW 3231   0.672   3.478   3.878
 1065SOL    HW1 3232   0.681   3.488   3.779
 1065SOL    HW2 3233   0.632   3.389   3.899
 1066SOL     OW 3234   1.841   2.037   4.687
 1066SOL    HW1 3235   1.880   1.952   4.651
 1066SOL    HW2 3236   1.743   2.039   4.668
 1067SOL     OW 3237   0.263   2.188   4.444
 1067SOL    HW1 3238   0.184   2.239   4.410
 1067SOL    HW2 3239   0.254   2.173   4.542
 1068SOL     OW 3240   1.194   3.474   3.755
 1068SOL    HW1 3241   1.200   3.381   3.792
 1068SOL    HW2 3242   1.135   3.474   3.675
 1069SOL     OW 3243   0.916   2.772   4.015
 1069SOL    HW1 3244   0.979   2.810   3.947
 1069SOL    HW2 3245   0.956   2.689   4.054
 1070SOL     OW 3246   1.504   3.469   3.768
 1070SOL    HW1 3247   1.412   3.506   3.775
 1070SOL    HW2 3248   1.542   3.489   3.678
 1071SOL     OW 3249   1.039   2.960   4.420
 1071SOL    HW1 3250   0.969   2.913   4.474
 1071SOL    HW2 3251   1.098   2.892   4.377
 1072SOL     OW 3252   0.590   3.349   4.215
 1072SOL    HW1 3253   0.632   3.291   4.145
 1072SOL    HW2 3254   0.546   3.428   4.171
 1073SOL     OW 3255   0.255   3.210   4.014
 1073SOL    HW1 3256   0.159   3.211   3.987
 1073SOL    HW2 3257   0.267   3.263   4.098
 1074SOL     OW 3258   0.075   2.207   3.757
 1074SOL    HW1 3259  -0.017   2.179   3.728
 1074SOL    HW2 3260   0.106   2.284   3.701
 1075SOL     OW 3261   0.072   2.028   4.042
 1075SOL    HW1 3262   0.055   2.111   3.988
 1075SOL    HW2 3263   0.162   1.991   4.020
 1076SOL     OW 3264   1.183   3.197   3.843
 1076SOL    HW1 3265   1.084   3.186   3.845
 1076SOL    HW2 3266   1.217   3.212   3.936
 1077SOL     OW 3267   1.674   2.745   4.978
 1077SOL    HW1 3268   1.647   2.656   4.941
 1077SOL    HW2 3269   1.675   2.813   4.905
 1078SOL     OW 3270   1.225   2.187   4.173
 1078SOL    HW1 3271   1.290   2.113   4.162
 1078SOL    HW2 3272   1.245   2.237   4.257
 1079SOL     OW 3273   0.594   2.607   4.376
 1079SOL    HW1 3274   0.644   2.692   4.357
 1079SOL    HW2 3275   0.506   2.609   4.328
 1080SOL     OW 3276   0.859   3.236   3.740
 1080SOL    HW1 3277   0.813   3.251   3.828
 1080SOL    HW2 3278   0.903   3.321   3.710
 1081SOL     OW 3279   0.661   3.652   4.677
 1081SOL    HW1 3280   0.615   3.740   4.664
 1081SOL    HW2 3281   0.760   3.664   4.670
 1082SOL     OW 3282   0.859   2.818   4.585
 1082SOL    HW1 3283   0.913   2.749   4.633
 1082SOL    HW2 3284   0.827   2.887   4.651
 1083SOL     OW 3285   1.083   2.846   3.811
 1083SOL    HW1 3286   1.060   2.899   3.729
 1083SOL    HW2 3287   1.164   2.790   3.792
 1084SOL     OW 3288   1.861   3.431   4.575
 1084SOL    HW1 3289   1.790   3.419   4.505
 1084SOL    HW2 3290   1.862   3.352   4.635
 1085SOL     OW 3291   0.079   3.102   4.377
 1085SOL    HW1 3292   0.078   3.055   4.465
 1085SOL    HW2 3293   0.161   3.074   4.326
 1086SOL     OW 3294   1.824   2.054   4.951
 1086SOL    HW1 3295   1.820   1.964   4.995
 1086SOL    HW2 3296   1.827   2.043   4.852
 1087SOL     OW 3297   0.428   2.286   4.244
 1087SOL    HW1 3298   0.458   2.214   4.182
 1087SOL    HW2 3299   0.389   2.246   4.327
 1088SOL     OW 3300   0.812   3.448   4.411
 1088SOL    HW1 3301   0.844   3.458   4.317
 1088SOL    HW2 3302   0.733   3.386   4.413
 1089SOL     OW 3303   0.770   3.192   4.025
 1089SOL    HW1 3304   0.724   3.105   4.042
 1089SOL    HW2 3305   0.861   3.189   4.066
 1090SOL     OW 3306   1.352   1.914   3.892
 1090SOL    HW1 3307   1.387   1.873   3.808
 1090SOL    HW2 3308   1.262   1.876   3.912
 1091SOL     OW 3309   1.300   2.315   4.415
 1091SOL    HW1 3310   1.241   2.395   4.419
 1091SOL    HW2 3311   1.315   2.280   4.508
 1092SOL     OW 3312   1.593   2.083   4.606
 1092SOL    HW1 3313   1.509   2.082   4.660
 1092SOL    HW2 3314   1.595   2.166   4.550
 1093SOL     OW 3315   0.039   2.939   4.024
 1093SOL    HW1 3316   0.138   2.928   4.015
 1093SOL    HW2 3317  -0.001   2.853   4.056
 1094SOL     OW 3318   0.875   3.508   4.061
 1094SOL    HW1 3319   0.798   3.473   4.007
 1094SOL    HW2 3320   0.843   3.579   4.123
 1095SOL     OW 3321   0.230   4.352   0.113
 1095SOL    HW1 3322   0.137   4.350   0.150
 1095SOL    HW2 3323   0.231   4.313   0.021
 1096SOL     OW 3324   0.225   3.999   0.996
 1096SOL    HW1 3325   0.260   3.982   1.088
 1096SOL    HW2 3326   0.137   3.954   0.984
 1097SOL     OW 3327   0.019   4.092   0.647
 1097SOL    HW1 3328  -0.063   4.135   0.686
 1097SOL    HW2 3329  -0.009   4.019   0.584
 1098SOL     OW 3330   1.135   4.427   0.717
 1098SOL    HW1 3331   1.192   4.505   0.692
 1098SOL    HW2 3332   1.075   4.453   0.793
 1099SOL     OW 3333   1.755   4.331   0.231
 1099SOL    HW1 3334   1.743   4.318   0.132
 1099SOL    HW2 3335   1.725   4.250   0.280
 1100SOL     OW 3336   0.768   4.868   1.023
 1100SOL    HW1 3337   0.690   4.885   1.083
 1100SOL    HW2 3338   0.802   4.955   0.987
 1101SOL     OW 3339   0.850   4.522   1.823
 1101SOL    HW1 3340   0.846   4.598   1.888
 1101SOL    HW2 3341   0.872   4.558   1.732
 1102SOL     OW 3342   0.685   4.736   0.665
 1102SOL    HW1 3343   0.754   4.720   0.735
 1102SOL    HW2 3344   0.612   4.793   0.703
 1103SOL     OW 3345   0.438   4.116   1.499
 1103SOL    HW1 3346   0.520   4.060   1.508
 1103SOL    HW2 3347   0.357   4.058   1.503
 1104SOL     OW 3348   1.603   4.171   0.737
 1104SOL    HW1 3349   1.529   4.217   0.687
 1104SOL    HW2 3350   1.654   4.239   0.790
 1105SOL     OW 3351   0.240   4.815   0.886
 1105SOL    HW1 3352   0.254   4.731   0.938
 1105SOL    HW2 3353   0.185   4.879   0.941
 1106SOL     OW 3354   0.606   4.688   0.123
 1106SOL    HW1 3355   0.613   4.772   0.069
 1106SOL    HW2 3356   0.652   4.701   0.211
 1107SOL     OW 3357   1.594   3.838   1.480
 1107SOL    HW1 3358   1.576   3.905   1.408
 1107SOL    HW2 3359   1.591   3.884   1.569
 1108SOL     OW 3360   0.122   4.367   0.563
 1108SOL    HW1 3361   0.077   4.279   0.580
 1108SOL    HW2 3362   0.121   4.421   0.647
 1109SOL     OW 3363   1.689   4.646   0.612
 1109SOL    HW1 3364   1.784   4.617   0.620
 1109SOL    HW2 3365   1.681   4.711   0.537
 1110SOL     OW 3366   0.113   4.461   1.597
 1110SOL    HW1 3367   0.201   4.448   1.642
 1110SOL    HW2 3368   0.100   4.558   1.575
 1111SOL     OW 3369   0.809   3.728   0.502
 1111SOL    HW1 3370   0.849   3.819   0.493
 1111SOL    HW2 3371   0.709   3.736   0.508
 1112SOL     OW 3372   0.197   4.700   1.264
 1112SOL    HW1 3373   0.286   4.655   1.250
 1112SOL    HW2 3374   0.124   4.635   1.245
 1113SOL     OW 3375   1.525   4.723   0.190
 1113SOL    HW1 3376   1.462   4.647   0.203
 1113SOL    HW2 3377   1.573   4.741   0.276
 1114SOL     OW 3378   0.317   3.975   1.801
 1114SOL    HW1 3379   0.388   4.046   1.807
 1114SOL    HW2 3380   0.229   4.014   1.829
 1115SOL     OW 3381   0.598   4.453   0.270
 1115SOL    HW1 3382   0.622   4.522   0.202
 1115SOL    HW2 3383   0.520   4.486   0.324
 1116SOL     OW 3384   1.281   4.069   0.944
 1116SOL    HW1 3385   1.195   4.019   0.931
 1116SOL    HW2 3386   1.343   4.015   1.000
 1117SOL     OW 3387   0.807   4.329   1.465
 1117SOL    HW1 3388   0.760   4.326   1.554
 1117SOL    HW2 3389   0.756   4.274   1.399
 1118SOL     OW 3390   1.394   4.193   1.674
 1118SOL    HW1 3391   1.374   4.236   1.762
 1118SOL    HW2 3392   1.472   4.131   1.683
 1119SOL     OW 3393   0.973   4.614   1.572
 1119SOL    HW1 3394   1.019   4.530   1.543
 1119SOL    HW2 3395   0.917   4.648   1.497
 1120SOL     OW 3396   0.991   4.134   1.242
 1120SOL    HW1 3397   0.914   4.168   1.296
 1120SOL    HW2 3398   0.957   4.083   1.163
 1121SOL     OW 3399   1.041   4.425   0.429
 1121SOL    HW1 3400   1.067   4.421   0.525
 1121SOL    HW2 3401   0.956   4.374   0.415
 1122SOL     OW 3402   0.076   4.535   0.789
 1122SOL    HW1 3403   0.175   4.523   0.798
 1122SOL    HW2 3404   0.052   4.630   0.810
 1123SOL     OW 3405   0.865   4.072   0.195
 1123SOL    HW1 3406   0.924   4.135   0.146
 1123SOL    HW2 3407   0.884   3.978   0.166
 1124SOL     OW 3408   1.719   4.309   1.831
 1124SOL    HW1 3409   1.693   4.398   1.795
 1124SOL    HW2 3410   1.717   4.241   1.758
 1125SOL     OW 3411   0.550   3.920   0.885
 1125SOL    HW1 3412   0.545   3.915   0.985
 1125SOL    HW2 3413   0.552   4.016   0.856
 1126SOL     OW 3414   1.458   4.459   0.728
 1126SOL    HW1 3415   1.453   4.394   0.803
 1126SOL    HW2 3416   1.538   4.518   0.741
 1127SOL     OW 3417   0.202   4.009   1.498
 1127SOL    HW1 3418   0.122   4.069   1.485
 1127SOL    HW2 3419   0.192   3.960   1.584
 1128SOL     OW 3420   1.400   3.831   0.426
 1128SOL    HW1 3421   1.376   3.794   0.336
 1128SOL    HW2 3422   1.499   3.847   0.430
 1129SOL     OW 3423   0.382   4.424   0.480
 1129SOL    HW1 3424   0.427   4.334   0.477
 1129SOL    HW2 3425   0.288   4.413   0.513
 1130SOL     OW 3426   1.547   3.946   1.729
 1130SOL    HW1 3427   1.542   3.983   1.821
 1130SOL    HW2 3428   1.475   3.877   1.717
 1131SOL     OW 3429   0.614   3.846   0.117
 1131SOL    HW1 3430   0.712   3.824   0.124
 1131SOL    HW2 3431   0.583   3.829   0.024
 1132SOL     OW 3432   0.781   3.988   1.749
 1132SOL    HW1 3433   0.848   3.927   1.792
 1132SOL    HW2 3434   0.708   4.007   1.814
 1133SOL     OW 3435   1.351   4.314   1.433
 1133SOL    HW1 3436   1.379   4.271   1.518
 1133SOL    HW2 3437   1.376   4.410   1.434
 1134SOL     OW 3438   0.922   4.227   0.899
 1134SOL    HW1 3439   0.897   4.218   0.803
 1134SOL    HW2 3440   0.970   4.145   0.930
 1135SOL     OW 3441   0.539   3.788   0.512
 1135SOL    HW1 3442   0.458   3.789   0.570
 1135SOL    HW2 3443   0.542   3.871   0.457
 1136SOL     OW 3444   0.935   3.960   0.480
 1136SOL    HW1 3445   0.887   4.001   0.402
 1136SOL    HW2 3446   1.034   3.958   0.461
 1137SOL     OW 3447   1.076   4.407   1.464
 1137SOL    HW1 3448   0.996   4.346   1.467
 1137SOL    HW2 3449   1.157   4.354   1.440
 1138SOL     OW 3450   1.032   4.273   0.016
 1138SOL    HW1 3451   0.991   4.355  -0.023
 1138SOL    HW2 3452   1.096   4.299   0.089
 1139SOL     OW 3453   0.078   4.280   1.386
 1139SOL    HW1 3454   0.170   4.279   1.345
 1139SOL    HW2 3455   0.072   4.354   1.453
 1140SOL     OW 3456   0.561   3.946   1.147
 1140SOL    HW1 3457   0.599   3.862   1.184
 1140SOL    HW2 3458   0.473   3.965   1.191
 1141SOL     OW 3459   0.866   4.178   0.642
 1141SOL    HW1 3460   0.834   4.250   0.580
 1141SOL    HW2 3461   0.890   4.097   0.589
 1142SOL     OW 3462   1.017   3.763   0.753
 1142SOL    HW1 3463   0.945   3.768   0.684
 1142SOL    HW2 3464   0.993   3.694   0.822
 1143SOL     OW 3465   1.429   4.897   0.867
 1143SOL    HW1 3466   1.374   4.813   0.860
 1143SOL    HW2 3467   1.455   4.926   0.775
 1144SOL     OW 3468   1.466   4.314   0.992
 1144SOL    HW1 3469   1.436   4.219   0.999
 1144SOL    HW2 3470   1.539   4.330   1.058
 1145SOL     OW 3471   1.857   4.557   0.377
 1145SOL    HW1 3472   1.899   4.493   0.441
 1145SOL    HW2 3473   1.819   4.506   0.299
 1146SOL     OW 3474   1.390   4.299   0.078
 1146SOL    HW1 3475   1.336   4.278   0.159
 1146SOL    HW2 3476   1.481   4.258   0.087
 1147SOL     OW 3477   0.527   3.980   0.328
 1147SOL    HW1 3478   0.554   3.921   0.253
 1147SOL    HW2 3479   0.527   4.075   0.297
 1148SOL     OW 3480   1.638   4.823   1.079
 1148SOL    HW1 3481   1.643   4.904   1.138
 1148SOL    HW2 3482   1.552   4.825   1.028
 1149SOL     OW 3483   0.915   3.813   1.402
 1149SOL    HW1 3484   0.940   3.793   1.307
 1149SOL    HW2 3485   0.987   3.869   1.444
 1150SOL     OW 3486   0.410   4.537   1.251
 1150SOL    HW1 3487   0.496   4.549   1.301
 1150SOL    HW2 3488   0.368   4.450   1.278
 1151SOL     OW 3489   1.274   4.110   1.262
 1151SOL    HW1 3490   1.295   4.184   1.326
 1151SOL    HW2 3491   1.185   4.127   1.219
 1152SOL     OW 3492   0.566   4.261   0.865
 1152SOL    HW1 3493   0.578   4.327   0.791
 1152SOL    HW2 3494   0.612   4.295   0.948
 1153SOL     OW 3495   1.582   4.363   0.472
 1153SOL    HW1 3496   1.551   4.424   0.545
 1153SOL    HW2 3497   1.632   4.415   0.403
 1154SOL     OW 3498   0.402   4.475   1.598
 1154SOL    HW1 3499   0.470   4.530   1.551
 1154SOL    HW2 3500   0.442   4.387   1.625
 1155SOL     OW 3501   1.587   4.503   1.670
 1155SOL    HW1 3502   1.495   4.541   1.665
 1155SOL    HW2 3503   1.647   4.550   1.605
 1156SOL     OW 3504   1.013   3.829   1.770
 1156SOL    HW1 3505   1.019   3.914   1.718
 1156SOL    HW2 3506   1.045   3.753   1.713
 1157SOL     OW 3507   0.504   3.774   1.740
 1157SOL    HW1 3508   0.462   3.717   1.670
 1157SOL    HW2 3509   0.438   3.843   1.772
 1158SOL     OW 3510   0.573   4.594   1.029
 1158SOL    HW1 3511   0.617   4.683   1.020
 1158SOL    HW2 3512   0.510   4.594   1.106
 1159SOL     OW 3513   1.360   4.586   1.045
 1159SOL    HW1 3514   1.285   4.586   0.979
 1159SOL    HW2 3515   1.397   4.494   1.054
 1160SOL     OW 3516   1.209   4.249   0.275
 1160SOL    HW1 3517   1.222   4.165   0.329
 1160SOL    HW2 3518   1.180   4.323   0.335
 1161SOL     OW 3519   0.307   3.937   1.231
 1161SOL    HW1 3520   0.284   3.974   1.321
 1161SOL    HW2 3521   0.277   3.842   1.225
 1162SOL     OW 3522   0.037   5.034   1.282
 1162SOL    HW1 3523   0.090   4.985   1.350
 1162SOL    HW2 3524   0.059   5.132   1.287
 1163SOL     OW 3525   0.732   4.358   1.064
 1163SOL    HW1 3526   0.791   4.332   0.988
 1163SOL    HW2 3527   0.704   4.454   1.053
 1164SOL     OW 3528   1.728   4.659   1.854
 1164SOL    HW1 3529   1.682   4.652   1.765
 1164SOL    HW2 3530   1.666   4.703   1.920
 1165SOL     OW 3531   0.307   3.787   0.618
 1165SOL    HW1 3532   0.296   3.881   0.651
 1165SOL    HW2 3533   0.302   3.724   0.695
 1166SOL     OW 3534   1.622   4.091   0.374
 1166SOL    HW1 3535   1.624   4.015   0.438
 1166SOL    HW2 3536   1.574   4.168   0.414
 1167SOL     OW 3537   1.023   4.490   0.966
 1167SOL    HW1 3538   1.038   4.511   1.062
 1167SOL    HW2 3539   0.993   4.395   0.957
 1168SOL     OW 3540   0.350   4.622   1.804
 1168SOL    HW1 3541   0.426   4.666   1.852
 1168SOL    HW2 3542   0.385   4.575   1.722
 1169SOL     OW 3543   1.540   3.998   0.125
 1169SOL    HW1 3544   1.479   3.923   0.148
 1169SOL    HW2 3545   1.562   4.050   0.208
 1170SOL     OW 3546   1.303   4.562   0.042
 1170SOL    HW1 3547   1.337   4.469   0.057
 1170SOL    HW2 3548   1.321   4.589  -0.053
 1171SOL     OW 3549   0.319   4.534   0.949
 1171SOL    HW1 3550   0.412   4.570   0.954
 1171SOL    HW2 3551   0.313   4.449   1.001
 1172SOL     OW 3552   0.339   4.233   1.006
 1172SOL    HW1 3553   0.287   4.150   0.989
 1172SOL    HW2 3554   0.416   4.238   0.942
 1173SOL     OW 3555   1.138   4.104   1.678
 1173SOL    HW1 3556   1.093   4.167   1.742
 1173SOL    HW2 3557   1.231   4.135   1.661
 1174SOL     OW 3558   1.160   3.931   1.477
 1174SOL    HW1 3559   1.160   3.995   1.554
 1174SOL    HW2 3560   1.188   3.979   1.394
 1175SOL     OW 3561   1.002   4.520   1.238
 1175SOL    HW1 3562   1.043   4.488   1.324
 1175SOL    HW2 3563   0.906   4.493   1.235
 1176SOL     OW 3564   0.040   4.268   1.114
 1176SOL    HW1 3565   0.125   4.235   1.073
 1176SOL    HW2 3566   0.053   4.283   1.212
 1177SOL     OW 3567   0.189   4.244   1.722
 1177SOL    HW1 3568   0.248   4.204   1.652
 1177SOL    HW2 3569   0.131   4.315   1.681
 1178SOL     OW 3570   1.369   4.674   1.660
 1178SOL    HW1 3571   1.408   4.763   1.680
 1178SOL    HW2 3572   1.379   4.654   1.563
 1179SOL     OW 3573   0.815   4.296   0.325
 1179SOL    HW1 3574   0.822   4.207   0.279
 1179SOL    HW2 3575   0.721   4.330   0.317
 1180SOL     OW 3576   1.657   4.328   1.206
 1180SOL    HW1 3577   1.619   4.259   1.268
 1180SOL    HW2 3578   1.739   4.292   1.162
 1181SOL     OW 3579   0.671   4.188   1.269
 1181SOL    HW1 3580   0.637   4.099   1.239
 1181SOL    HW2 3581   0.697   4.242   1.189
 1182SOL     OW 3582   0.473   4.224   0.191
 1182SOL    HW1 3583   0.534   4.304   0.195
 1182SOL    HW2 3584   0.378   4.255   0.198
 1183SOL     OW 3585   0.159   4.861   1.466
 1183SOL    HW1 3586   0.181   4.800   1.542
 1183SOL    HW2 3587   0.169   4.812   1.380
 1184SOL     OW 3588   1.347   4.783   1.234
 1184SOL    HW1 3589   1.371   4.720   1.160
 1184SOL    HW2 3590   1.257   4.823   1.216
 1185SOL     OW 3591   1.302   4.579   0.309
 1185SOL    HW1 3592   1.216   4.548   0.351
 1185SOL    HW2 3593   1.298   4.565   0.210
 1186SOL     OW 3594   0.903   3.810   0.133
 1186SOL    HW1 3595   0.954   3.811   0.047
 1186SOL    HW2 3596   0.959   3.768   0.204
 1187SOL     OW 3597   1.726   3.859   0.523
 1187SOL    HW1 3598   1.799   3.842   0.456
 1187SOL    HW2 3599   1.695   3.772   0.561
 1188SOL     OW 3600   1.280   4.651   0.672
 1188SOL    HW1 3601   1.340   4.570   0.674
 1188SOL    HW2 3602   1.320   4.720   0.612
 1189SOL     OW 3603   1.841   3.899   0.963
 1189SOL    HW1 3604   1.880   3.814   0.927
 1189SOL    HW2 3605   1.743   3.901   0.944
 1190SOL     OW 3606   0.263   4.050   0.720
 1190SOL    HW1 3607   0.184   4.101   0.686
 1190SOL    HW2 3608   0.254   4.035   0.818
 1191SOL     OW 3609   0.916   4.634   0.291
 1191SOL    HW1 3610   0.979   4.672   0.223
 1191SOL    HW2 3611   0.956   4.551   0.330
 1192SOL     OW 3612   1.014   3.960   0.971
 1192SOL    HW1 3613   1.006   3.924   0.878
 1192SOL    HW2 3614   1.012   3.884   1.036
 1193SOL     OW 3615   1.709   4.109   1.381
 1193SOL    HW1 3616   1.782   4.178   1.385
 1193SOL    HW2 3617   1.737   4.034   1.322
 1194SOL     OW 3618   0.105   4.737   1.726
 1194SOL    HW1 3619   0.028   4.704   1.780
 1194SOL    HW2 3620   0.190   4.707   1.768
 1195SOL     OW 3621   0.672   3.927   1.489
 1195SOL    HW1 3622   0.762   3.911   1.449
 1195SOL    HW2 3623   0.680   3.932   1.588
 1196SOL     OW 3624   0.075   4.069   0.033
 1196SOL    HW1 3625  -0.017   4.041   0.004
 1196SOL    HW2 3626   0.106   4.146  -0.023
 1197SOL     OW 3627   1.440   4.580   1.398
 1197SOL    HW1 3628   1.383   4.632   1.335
 1197SOL    HW2 3629   1.536   4.592   1.374
 1198SOL     OW 3630   0.072   3.890   0.318
 1198SOL    HW1 3631   0.055   3.973   0.264
 1198SOL    HW2 3632   0.162   3.853   0.296
 1199SOL     OW 3633   1.183   5.059   0.119
 1199SOL    HW1 3634   1.084   5.048   0.121
 1199SOL    HW2 3635   1.217   5.074   0.212
 1200SOL     OW 3636   0.613   4.566   1.431
 1200SOL    HW1 3637   0.669   4.647   1.414
 1200SOL    HW2 3638   0.672   4.486   1.434
 1201SOL     OW 3639   0.716   4.289   1.708
 1201SOL    HW1 3640   0.735   4.354   1.782
 1201SOL    HW2 3641   0.776   4.209   1.717
 1202SOL     OW 3642   1.674   4.607   1.254
 1202SOL    HW1 3643   1.647   4.518   1.217
 1202SOL    HW2 3644   1.675   4.675   1.181
 1203SOL     OW 3645   1.225   4.049   0.449
 1203SOL    HW1 3646   1.290   3.975   0.438
 1203SOL    HW2 3647   1.245   4.099   0.533
 1204SOL     OW 3648   0.594   4.469   0.652
 1204SOL    HW1 3649   0.644   4.554   0.633
 1204SOL    HW2 3650   0.506   4.471   0.604
 1205SOL     OW 3651   1.777   4.066   1.642
 1205SOL    HW1 3652   1.760   4.097   1.548
 1205SOL    HW2 3653   1.693   4.029   1.680
 1206SOL     OW 3654   1.730   4.658   1.517
 1206SOL    HW1 3655   1.768   4.749   1.532
 1206SOL    HW2 3656   1.722   4.641   1.418
 1207SOL     OW 3657   0.859   4.680   0.861
 1207SOL    HW1 3658   0.913   4.611   0.909
 1207SOL    HW2 3659   0.827   4.749   0.927
 1208SOL     OW 3660   1.083   4.708   0.087
 1208SOL    HW1 3661   1.060   4.761   0.005
 1208SOL    HW2 3662   1.164   4.652   0.068
 1209SOL     OW 3663   0.079   4.964   0.653
 1209SOL    HW1 3664   0.078   4.917   0.741
 1209SOL    HW2 3665   0.161   4.936   0.602
 1210SOL     OW 3666   1.824   3.916   1.227
 1210SOL    HW1 3667   1.820   3.826   1.271
 1210SOL    HW2 3668   1.827   3.905   1.128
 1211SOL     OW 3669   0.428   4.148   0.520
 1211SOL    HW1 3670   0.458   4.076   0.458
 1211SOL    HW2 3671   0.389   4.108   0.603
 1212SOL     OW 3672   0.317   4.271   1.280
 1212SOL    HW1 3673   0.355   4.212   1.352
 1212SOL    HW2 3674   0.357   4.245   1.192
 1213SOL     OW 3675   1.424   3.938   1.112
 1213SOL    HW1 3676   1.476   3.873   1.167
 1213SOL    HW2 3677   1.375   4.001   1.173
 1214SOL     OW 3678   1.001   3.758   1.154
 1214SOL    HW1 3679   0.938   3.686   1.123
 1214SOL    HW2 3680   1.094   3.722   1.154
 1215SOL     OW 3681   1.352   3.776   0.168
 1215SOL    HW1 3682   1.387   3.735   0.084
 1215SOL    HW2 3683   1.262   3.738   0.188
 1216SOL     OW 3684   1.300   4.177   0.691
 1216SOL    HW1 3685   1.241   4.257   0.695
 1216SOL    HW2 3686   1.315   4.142   0.784
 1217SOL     OW 3687   1.593   3.945   0.882
 1217SOL    HW1 3688   1.509   3.944   0.936
 1217SOL    HW2 3689   1.595   4.028   0.826
 1218SOL     OW 3690   0.039   4.801   0.300
 1218SOL    HW1 3691   0.138   4.790   0.291
 1218SOL    HW2 3692  -0.001   4.715   0.332
 1219SOL     OW 3693   0.230   4.352   1.975
 1219SOL    HW1 3694   0.137   4.350   2.012
 1219SOL    HW2 3695   0.231   4.313   1.883
 1220SOL     OW 3696   0.225   3.999   2.858
 1220SOL    HW1 3697   0.260   3.982   2.950
 1220SOL    HW2 3698   0.137   3.954   2.846
 1221SOL     OW 3699   0.019   4.092   2.509
 1221SOL    HW1 3700  -0.063   4.135   2.548
 1221SOL    HW2 3701  -0.009   4.019   2.446
 1222SOL     OW 3702   1.135   4.427   2.579
 1222SOL    HW1 3703   1.192   4.505   2.554
 1222SOL    HW2 3704   1.075   4.453   2.655
 1223SOL     OW 3705   1.755   4.331   2.093
 1223SOL    HW1 3706   1.743   4.318   1.994
 1223SOL    HW2 3707   1.725   4.250   2.142
 1224SOL     OW 3708   0.768   4.868   2.885
 1224SOL    HW1 3709   0.690   4.885   2.945
 1224SOL    HW2 3710   0.802   4.955   2.849
 1225SOL     OW 3711   0.850   4.522   3.685
 1225SOL    HW1 3712   0.846   4.598   3.750
 1225SOL    HW2 3713   0.872   4.558   3.594
 1226SOL     OW 3714   0.685   4.736   2.527
 1226SOL    HW1 3715   0.754   4.720   2.597
 1226SOL    HW2 3716   0.612   4.793   2.565
 1227SOL     OW 3717   0.438   4.116   3.361
 1227SOL    HW1 3718   0.520   4.060   3.370
 1227SOL    HW2 3719   0.357   4.058   3.365
 1228SOL     OW 3720   1.603   4.171   2.599
 1228SOL    HW1 3721   1.529   4.217   2.549
 1228SOL    HW2 3722   1.654   4.239   2.652
 1229SOL     OW 3723   0.240   4.815   2.748
 1229SOL    HW1 3724   0.254   4.731   2.800
 1229SOL    HW2 3725   0.185   4.879   2.803
 1230SOL     OW 3726   0.606   4.688   1.985
 1230SOL    HW1 3727   0.613   4.772   1.931
 1230SOL    HW2 3728   0.652   4.701   2.073
 1231SOL     OW 3729   1.594   3.838   3.342
 1231SOL    HW1 3730   1.576   3.905   3.270
 1231SOL    HW2 3731   1.591   3.884   3.431
 1232SOL     OW 3732   0.122   4.367   2.425
 1232SOL    HW1 3733   0.077   4.279   2.442
 1232SOL    HW2 3734   0.121   4.421   2.509
 1233SOL     OW 3735   1.689   4.646   2.474
 1233SOL    HW1 3736   1.784   4.617   2.482
 1233SOL    HW2 3737   1.681   4.711   2.399
 1234SOL     OW 3738   0.113   4.461   3.459
 1234SOL    HW1 3739   0.201   4.448   3.504
 1234SOL    HW2 3740   0.100   4.558   3.437
 1235SOL     OW 3741   0.809   3.728   2.364
 1235SOL    HW1 3742   0.849   3.819   2.355
 1235SOL    HW2 3743   0.709   3.736   2.370
 1236SOL     OW 3744   0.197   4.700   3.126
 1236SOL    HW1 3745   0.286   4.655   3.112
 1236SOL    HW2 3746   0.124   4.635   3.107
 1237SOL     OW 3747   1.525   4.723   2.052
 1237SOL    HW1 3748   1.462   4.647   2.065
 1237SOL    HW2 3749   1.573   4.741   2.138
 1238SOL     OW 3750   0.317   3.975   3.663
 1238SOL    HW1 3751   0.388   4.046   3.669
 1238SOL    HW2 3752   0.229   4.014   3.691
 1239SOL     OW 3753   0.598   4.453   2.132
 1239SOL    HW1 3754   0.622   4.522   2.064
 1239SOL    HW2 3755   0.520   4.486   2.186
 1240SOL     OW 3756   1.281   4.069   2.806
 1240SOL    HW1 3757   1.195   4.019   2.793
 1240SOL    HW2 3758   1.343   4.015   2.862
 1241SOL     OW 3759   0.807   4.329   3.327
 1241SOL    HW1 3760   0.760   4.326   3.416
 1241SOL    HW2 3761   0.756   4.274   3.261
 1242SOL     OW 3762   1.394   4.193   3.536
 1242SOL    HW1 3763   1.374   4.236   3.624
 1242SOL    HW2 3764   1.472   4.131   3.545
 1243SOL     OW 3765   0.973   4.614   3.434
 1243SOL    HW1 3766   1.019   4.530   3.405
 1243SOL    HW2 3767   0.917   4.648   3.359
 1244SOL     OW 3768   0.991   4.134   3.104
 1244SOL    HW1 3769   0.914   4.168   3.158
 1244SOL    HW2 3770   0.957   4.083   3.025
 1245SOL     OW 3771   1.041   4.425   2.291
 1245SOL    HW1 3772   1.067   4.421   2.387
 1245SOL    HW2 3773   0.956   4.374   2.277
 1246SOL     OW 3774   0.076   4.535   2.651
 1246SOL    HW1 3775   0.175   4.523   2.660
 1246SOL    HW2 3776   0.052   4.630   2.672
 1247SOL     OW 3777   0.865   4.072   2.057
 1247SOL    HW1 3778   0.924   4.135   2.008
 1247SOL    HW2 3779   0.884   3.978   2.028
 1248SOL     OW 3780   1.719   4.309   3.693
 1248SOL    HW1 3781   1.693   4.398   3.657
 1248SOL    HW2 3782   1.717   4.241   3.620
 1249SOL     OW 3783   0.550   3.920   2.747
 1249SOL    HW1 3784   0.545   3.915   2.847
 1249SOL    HW2 3785   0.552   4.016   2.718
 1250SOL     OW 3786   1.458   4.459   2.590
 1250SOL    HW1 3787   1.453   4.394   2.665
 1250SOL    HW2 3788   1.538   4.518   2.603
 1251SOL     OW 3789   0.202   4.009   3.360
 1251SOL    HW1 3790   0.122   4.069   3.347
 1251SOL    HW2 3791   0.192   3.960   3.446
 1252SOL     OW 3792   1.400   3.831   2.288
 1252SOL    HW1 3793   1.376   3.794   2.198
 1252SOL    HW2 3794   1.499   3.847   2.292
 1253SOL     OW 3795   0.382   4.424   2.342
 1253SOL    HW1 3796   0.427   4.334   2.339
 1253SOL    HW2 3797   0.288   4.413   2.375
 1254SOL     OW 3798   1.547   3.946   3.591
 1254SOL    HW1 3799   1.542   3.983   3.683
 1254SOL    HW2 3800   1.475   3.877   3.579
 1255SOL     OW 3801   0.614   3.846   1.979
 1255SOL    HW1 3802   0.712   3.824   1.986
 1255SOL    HW2 3803   0.583   3.829   1.886
 1256SOL     OW 3804   0.781   3.988   3.611
 1256SOL    HW1 3805   0.848   3.927   3.654
 1256SOL    HW2 3806   0.708   4.007   3.676
 1257SOL     OW 3807   1.351   4.314   3.295
 1257SOL    HW1 3808   1.379   4.271   3.380
 1257SOL    HW2 3809   1.376   4.410   3.296
 1258SOL     OW 3810   0.922   4.227   2.761
 1258SOL    HW1 3811   0.897   4.218   2.665
 1258SOL    HW2 3812   0.970   4.145   2.792
 1259SOL     OW 3813   0.539   3.788   2.374
 1259SOL    HW1 3814   0.458   3.789   2.432
 1259SOL    HW2 3815   0.542   3.871   2.319
 1260SOL     OW 3816   0.297   3.759   2.033
 1260SOL    HW1 3817   0.346   3.843   2.012
 1260SOL    HW2 3818   0.359   3.694   2.078
 1261SOL     OW 3819   0.935   3.960   2.342
 1261SOL    HW1 3820   0.887   4.001   2.264
 1261SOL    HW2 3821   1.034   3.958   2.323
 1262SOL     OW 3822   1.076   4.407   3.326
 1262SOL    HW1 3823   0.996   4.346   3.329
 1262SOL    HW2 3824   1.157   4.354   3.302
 1263SOL     OW 3825   1.032   4.273   1.878
 1263SOL    HW1 3826   0.991   4.355   1.839
 1263SOL    HW2 3827   1.096   4.299   1.951
 1264SOL     OW 3828   0.078   4.280   3.248
 1264SOL    HW1 3829   0.170   4.279   3.207
 1264SOL    HW2 3830   0.072   4.354   3.315
 1265SOL     OW 3831   0.561   3.946   3.009
 1265SOL    HW1 3832   0.599   3.862   3.046
 1265SOL    HW2 3833   0.473   3.965   3.053
 1266SOL     OW 3834   0.866   4.178   2.504
 1266SOL    HW1 3835   0.834   4.250   2.442
 1266SOL    HW2 3836   0.890   4.097   2.451
 1267SOL     OW 3837   1.017   3.763   2.615
 1267SOL    HW1 3838   0.945   3.768   2.546
 1267SOL    HW2 3839   0.993   3.694   2.684
 1268SOL     OW 3840   1.429   4.897   2.729
 1268SOL    HW1 3841   1.374   4.813   2.722
 1268SOL    HW2 3842   1.455   4.926   2.637
 1269SOL     OW 3843   1.466   4.314   2.854
 1269SOL    HW1 3844   1.436   4.219   2.861
 1269SOL    HW2 3845   1.539   4.330   2.920
 1270SOL     OW 3846   1.857   4.557   2.239
 1270SOL    HW1 3847   1.899   4.493   2.303
 1270SOL    HW2 3848   1.819   4.506   2.161
 1271SOL     OW 3849   1.390   4.299   1.940
 1271SOL    HW1 3850   1.336   4.278   2.021
 1271SOL    HW2 3851   1.481   4.258   1.949
 1272SOL     OW 3852   0.527   3.980   2.190
 1272SOL    HW1 3853   0.554   3.921   2.115
 1272SOL    HW2 3854   0.527   4.075   2.159
 1273SOL     OW 3855   1.638   4.823   2.941
 1273SOL    HW1 3856   1.643   4.904   3.000
 1273SOL    HW2 3857   1.552   4.825   2.890
 1274SOL     OW 3858   0.915   3.813   3.264
 1274SOL    HW1 3859   0.940   3.793   3.169
 1274SOL    HW2 3860   0.987   3.869   3.306
 1275SOL     OW 3861   0.410   4.537   3.113
 1275SOL    HW1 3862   0.496   4.549   3.163
 1275SOL    HW2 3863   0.368   4.450   3.140
 1276SOL     OW 3864   1.274   4.110   3.124
 1276SOL    HW1 3865   1.295   4.184   3.188
 1276SOL    HW2 3866   1.185   4.127   3.081
 1277SOL     OW 3867   0.566   4.261   2.727
 1277SOL    HW1 3868   0.578   4.327   2.653
 1277SOL    HW2 3869   0.612   4.295   2.810
 1278SOL     OW 3870   1.582   4.363   2.334
 1278SOL    HW1 3871   1.551   4.424   2.407
 1278SOL    HW2 3872   1.632   4.415   2.265
 1279SOL     OW 3873   0.402   4.475   3.460
 1279SOL    HW1 3874   0.470   4.530   3.413
 1279SOL    HW2 3875   0.442   4.387   3.487
 1280SOL     OW 3876   1.587   4.503   3.532
 1280SOL    HW1 3877   1.495   4.541   3.527
 1280SOL    HW2 3878   1.647   4.550   3.467
 1281SOL     OW 3879   1.013   3.829   3.632
 1281SOL    HW1 3880   1.019   3.914   3.580
 1281SOL    HW2 3881   1.045   3.753   3.575
 1282SOL     OW 3882   0.504   3.774   3.602
 1282SOL    HW1 3883   0.462   3.717   3.532
 1282SOL    HW2 3884   0.438   3.843   3.634
 1283SOL     OW 3885   0.573   4.594   2.891
 1283SOL    HW1 3886   0.617   4.683   2.882
 1283SOL    HW2 3887   0.510   4.594   2.968
 1284SOL     OW 3888   1.360   4.586   2.907
 1284SOL    HW1 3889   1.285   4.586   2.841
 1284SOL    HW2 3890   1.397   4.494   2.916
 1285SOL     OW 3891   1.209   4.249   2.137
 1285SOL    HW1 3892   1.222   4.165   2.191
 1285SOL    HW2 3893   1.180   4.323   2.197
 1286SOL     OW 3894   0.307   3.937   3.093
 1286SOL    HW1 3895   0.284   3.974   3.183
 1286SOL    HW2 3896   0.277   3.842   3.087
 1287SOL     OW 3897   0.037   5.034   3.144
 1287SOL    HW1 3898   0.090   4.985   3.212
 1287SOL    HW2 3899   0.059   5.132   3.149
 1288SOL     OW 3900   0.732   4.358   2.926
 1288SOL    HW1 3901   0.791   4.332   2.850
 1288SOL    HW2 3902   0.704   4.454   2.915
 1289SOL     OW 3903   1.728   4.659   3.716
 1289SOL    HW1 3904   1.682   4.652   3.627
 1289SOL    HW2 3905   1.666   4.703   3.782
 1290SOL     OW 3906   0.307   3.787   2.480
 1290SOL    HW1 3907   0.296   3.881   2.513
 1290SOL    HW2 3908   0.302   3.724   2.557
 1291SOL     OW 3909   1.622   4.091   2.236
 1291SOL    HW1 3910   1.624   4.015   2.300
 1291SOL    HW2 3911   1.574   4.168   2.276
 1292SOL     OW 3912   1.023   4.490   2.828
 1292SOL    HW1 3913   1.038   4.511   2.924
 1292SOL    HW2 3914   0.993   4.395   2.819
 1293SOL     OW 3915   0.350   4.622   3.666
 1293SOL    HW1 3916   0.426   4.666   3.714
 1293SOL    HW2 3917   0.385   4.575   3.584
 1294SOL     OW 3918   1.540   3.998   1.987
 1294SOL    HW1 3919   1.479   3.923   2.010
 1294SOL    HW2 3920   1.562   4.050   2.070
 1295SOL     OW 3921   1.303   4.562   1.904
 1295SOL    HW1 3922   1.337   4.469   1.919
 1295SOL    HW2 3923   1.321   4.589   1.809
 1296SOL     OW 3924   0.319   4.534   2.811
 1296SOL    HW1 3925   0.412   4.570   2.816
 1296SOL    HW2 3926   0.313   4.449   2.863
 1297SOL     OW 3927   0.339   4.233   2.868
 1297SOL    HW1 3928   0.287   4.150   2.851
 1297SOL    HW2 3929   0.416   4.238   2.804
 1298SOL     OW 3930   1.138   4.104   3.540
 1298SOL    HW1 3931   1.093   4.167   3.604
 1298SOL    HW2 3932   1.231   4.135   3.523
 1299SOL     OW 3933   1.160   3.931   3.339
 1299SOL    HW1 3934   1.160   3.995   3.416
 1299SOL    HW2 3935   1.188   3.979   3.256
 1300SOL     OW 3936   1.002   4.520   3.100
 1300SOL    HW1 3937   1.043   4.488   3.186
 1300SOL    HW2 3938   0.906   4.493   3.097
 1301SOL     OW 3939   0.040   4.268   2.976
 1301SOL    HW1 3940   0.125   4.235   2.935
 1301SOL    HW2 3941   0.053   4.283   3.074
 1302SOL     OW 3942   0.189   4.244   3.584
 1302SOL    HW1 3943   0.248   4.204   3.514
 1302SOL    HW2 3944   0.131   4.315   3.543
 1303SOL     OW 3945   1.369   4.674   3.522
 1303SOL    HW1 3946   1.408   4.763   3.542
 1303SOL    HW2 3947   1.379   4.654   3.425
 1304SOL     OW 3948   0.815   4.296   2.187
 1304SOL    HW1 3949   0.822   4.207   2.141
 1304SOL    HW2 3950   0.721   4.330   2.179
 1305SOL     OW 3951   1.657   4.328   3.068
 1305SOL    HW1 3952   1.619   4.259   3.130
 1305SOL    HW2 3953   1.739   4.292   3.024
 1306SOL     OW 3954   0.671   4.188   3.131
 1306SOL    HW1 3955   0.637   4.099   3.101
 1306SOL    HW2 3956   0.697   4.242   3.051
 1307SOL     OW 3957   0.473   4.224   2.053
 1307SOL    HW1 3958   0.534   4.304   2.057
 1307SOL    HW2 3959   0.378   4.255   2.060
 1308SOL     OW 3960   0.159   4.861   3.328
 1308SOL    HW1 3961   0.181   4.800   3.404
 1308SOL    HW2 3962   0.169   4.812   3.242
 1309SOL     OW 3963   1.347   4.783   3.096
 1309SOL    HW1 3964   1.371   4.720   3.022
 1309SOL    HW2 3965   1.257   4.823   3.078
 1310SOL     OW 3966   1.302   4.579   2.171
 1310SOL    HW1 3967   1.216   4.548   2.213
 1310SOL    HW2 3968   1.298   4.565   2.072
 1311SOL     OW 3969   1.726   3.859   2.385
 1311SOL    HW1 3970   1.799   3.842   2.318
 1311SOL    HW2 3971   1.695   3.772   2.423
 1312SOL     OW 3972   1.280   4.651   2.534
 1312SOL    HW1 3973   1.340   4.570   2.536
 1312SOL    HW2 3974   1.320   4.720   2.474
 1313SOL     OW 3975   1.841   3.899   2.825
 1313SOL    HW1 3976   1.880   3.814   2.789
 1313SOL    HW2 3977   1.743   3.901   2.806
 1314SOL     OW 3978   0.263   4.050   2.582
 1314SOL    HW1 3979   0.184   4.101   2.548
 1314SOL    HW2 3980   0.254   4.035   2.680
 1315SOL     OW 3981   0.916   4.634   2.153
 1315SOL    HW1 3982   0.979   4.672   2.085
 1315SOL    HW2 3983   0.956   4.551   2.192
 1316SOL     OW 3984   1.014   3.960   2.833
 1316SOL    HW1 3985   1.006   3.924   2.740
 1316SOL    HW2 3986   1.012   3.884   2.898
 1317SOL     OW 3987   1.709   4.109   3.243
 1317SOL    HW1 3988   1.782   4.178   3.247
 1317SOL    HW2 3989   1.737   4.034   3.184
 1318SOL     OW 3990   0.105   4.737   3.588
 1318SOL    HW1 3991   0.028   4.704   3.642
 1318SOL    HW2 3992   0.190   4.707   3.630
 1319SOL     OW 3993   0.672   3.927   3.351
 1319SOL    HW1 3994   0.762   3.911   3.311
 1319SOL    HW2 3995   0.680   3.932   3.450
 1320SOL     OW 3996   0.075   4.069   1.895
 1320SOL    HW1 3997  -0.017   4.041   1.866
 1320SOL    HW2 3998   0.106   4.146   1.839
 1321SOL     OW 3999   1.440   4.580   3.260
 1321SOL    HW1 4000   1.383   4.632   3.197
 1321SOL    HW2 4001   1.536   4.592   3.236
 1322SOL     OW 4002   0.072   3.890   2.180
 1322SOL    HW1 4003   0.055   3.973   2.126
 1322SOL    HW2 4004   0.162   3.853   2.158
 1323SOL     OW 4005   1.183   5.059   1.981
 1323SOL    HW1 4006   1.084   5.048   1.983
 1323SOL    HW2 4007   1.217   5.074   2.074
 1324SOL     OW 4008   0.613   4.566   3.293
 1324SOL    HW1 4009   0.669   4.647   3.276
 1324SOL    HW2 4010   0.672   4.486   3.296
 1325SOL     OW 4011   0.716   4.289   3.570
 1325SOL    HW1 4012   0.735   4.354   3.644
 1325SOL    HW2 4013   0.776   4.209   3.579
 1326SOL     OW 4014   1.674   4.607   3.116
 1326SOL    HW1 4015   1.647   4.518   3.079
 1326SOL    HW2 4016   1.675   4.675   3.043
 1327SOL     OW 4017   1.225   4.049   2.311
 1327SOL    HW1 4018   1.290   3.975   2.300
 1327SOL    HW2 4019   1.245   4.099   2.395
 1328SOL     OW 4020   0.594   4.469   2.514
 1328SOL    HW1 4021   0.644   4.554   2.495
 1328SOL    HW2 4022   0.506   4.471   2.466
 1329SOL     OW 4023   1.777   4.066   3.504
 1329SOL    HW1 4024   1.760   4.097   3.410
 1329SOL    HW2 4025   1.693   4.029   3.542
 1330SOL     OW 4026   1.730   4.658   3.379
 1330SOL    HW1 4027   1.768   4.749   3.394
 1330SOL    HW2 4028   1.722   4.641   3.280
 1331SOL     OW 4029   0.859   4.680   2.723
 1331SOL    HW1 4030   0.913   4.611   2.771
 1331SOL    HW2 4031   0.827   4.749   2.789
 1332SOL     OW 4032   1.083   4.708   1.949
 1332SOL    HW1 4033   1.060   4.761   1.867
 1332SOL    HW2 4034   1.164   4.652   1.930
 1333SOL     OW 4035   0.079   4.964   2.515
 1333SOL    HW1 4036   0.078   4.917   2.603
 1333SOL    HW2 4037   0.161   4.936   2.464
 1334SOL     OW 4038   1.824   3.916   3.089
 1334SOL    HW1 4039   1.820   3.826   3.133
 1334SOL    HW2 4040   1.827   3.905   2.990
 1335SOL     OW 4041   0.428   4.148   2.382
 1335SOL    HW1 4042   0.458   4.076   2.320
 1335SOL    HW2 4043   0.389   4.108   2.465
 1336SOL     OW 4044   0.317   4.271   3.142
 1336SOL    HW1 4045   0.355   4.212   3.214
 1336SOL    HW2 4046   0.357   4.245   3.054
 1337SOL     OW 4047   1.424   3.938   2.974
 1337SOL    HW1 4048   1.476   3.873   3.029
 1337SOL    HW2 4049   1.375   4.001   3.035
 1338SOL     OW 4050   1.001   3.758   3.016
 1338SOL    HW1 4051   0.938   3.686   2.985
 1338SOL    HW2 4052   1.094   3.722   3.016
 1339SOL     OW 4053   1.352   3.776   2.030
 1339SOL    HW1 4054   1.387   3.735   1.946
 1339SOL    HW2 4055   1.262   3.738   2.050
 1340SOL     OW 4056   1.300   4.177   2.553
 1340SOL    HW1 4057   1.241   4.257   2.557
 1340SOL    HW2 4058   1.315   4.142   2.646
 1341SOL     OW 4059   1.593   3.945   2.744
 1341SOL    HW1 4060   1.509   3.944   2.798
 1341SOL    HW2 4061   1.595   4.028   2.688
 1342SOL     OW 4062   0.039   4.801   2.162
 1342SOL    HW1 4063   0.138   4.790   2.153
 1342SOL    HW2 4064  -0.001   4.715   2.194
 1343SOL     OW 4065   0.230   4.352   3.837
 1343SOL    HW1 4066   0.137   4.350   3.874
 1343SOL    HW2 4067   0.231   4.313   3.745
 1344SOL     OW 4068   0.225   3.999   4.720
 1344SOL    HW1 4069   0.260   3.982   4.812
 1344SOL    HW2 4070   0.137   3.954   4.708
 1345SOL     OW 4071   0.019   4.092   4.371
 1345SOL    HW1 4072  -0.063   4.135   4.410
 1345SOL    HW2 4073  -0.009   4.019   4.308
 1346SOL     OW 4074   1.135   4.427   4.441
 1346SOL    HW1 4075   1.192   4.505   4.416
 1346SOL    HW2 4076   1.075   4.453   4.517
 1347SOL     OW 4077   1.755   4.331   3.955
 1347SOL    HW1 4078   1.743   4.318   3.856
 1347SOL    HW2 4079   1.725   4.250   4.004
 1348SOL     OW 4080   0.685   4.736   4.389
 1348SOL    HW1 4081   0.754   4.720   4.459
 1348SOL    HW2 4082   0.612   4.793   4.427
 1349SOL     OW 4083   1.603   4.171   4.461
 1349SOL    HW1 4084   1.529   4.217   4.411
 1349SOL    HW2 4085   1.654   4.239   4.514
 1350SOL     OW 4086   0.240   4.815   4.610
 1350SOL    HW1 4087   0.254   4.731   4.662
 1350SOL    HW2 4088   0.185   4.879   4.665
 1351SOL     OW 4089   0.606   4.688   3.847
 1351SOL    HW1 4090   0.613   4.772   3.793
 1351SOL    HW2 4091   0.652   4.701   3.935
 1352SOL     OW 4092   0.122   4.367   4.287
 1352SOL    HW1 4093   0.077   4.279   4.304
 1352SOL    HW2 4094   0.121   4.421   4.371
 1353SOL     OW 4095   1.689   4.646   4.336
 1353SOL    HW1 4096   1.784   4.617   4.344
 1353SOL    HW2 4097   1.681   4.711   4.261
 1354SOL     OW 4098   0.809   3.728   4.226
 1354SOL    HW1 4099   0.849   3.819   4.217
 1354SOL    HW2 4100   0.709   3.736   4.232
 1355SOL     OW 4101   0.197   4.700   4.988
 1355SOL    HW1 4102   0.286   4.655   4.974
 1355SOL    HW2 4103   0.124   4.635   4.969
 1356SOL     OW 4104   1.525   4.723   3.914
 1356SOL    HW1 4105   1.462   4.647   3.927
 1356SOL    HW2 4106   1.573   4.741   4.000
 1357SOL     OW 4107   0.598   4.453   3.994
 1357SOL    HW1 4108   0.622   4.522   3.926
 1357SOL    HW2 4109   0.520   4.486   4.048
 1358SOL     OW 4110   1.281   4.069   4.668
 1358SOL    HW1 4111   1.195   4.019   4.655
 1358SOL    HW2 4112   1.343   4.015   4.724
 1359SOL     OW 4113   1.041   4.425   4.153
 1359SOL    HW1 4114   1.067   4.421   4.249
 1359SOL    HW2 4115   0.956   4.374   4.139
 1360SOL     OW 4116   0.076   4.535   4.513
 1360SOL    HW1 4117   0.175   4.523   4.522
 1360SOL    HW2 4118   0.052   4.630   4.534
 1361SOL     OW 4119   0.865   4.072   3.919
 1361SOL    HW1 4120   0.924   4.135   3.870
 1361SOL    HW2 4121   0.884   3.978   3.890
 1362SOL     OW 4122   0.550   3.920   4.609
 1362SOL    HW1 4123   0.545   3.915   4.709
 1362SOL    HW2 4124   0.552   4.016   4.580
 1363SOL     OW 4125   1.458   4.459   4.452
 1363SOL    HW1 4126   1.453   4.394   4.527
 1363SOL    HW2 4127   1.538   4.518   4.465
 1364SOL     OW 4128   1.400   3.831   4.150
 1364SOL    HW1 4129   1.376   3.794   4.060
 1364SOL    HW2 4130   1.499   3.847   4.154
 1365SOL     OW 4131   0.382   4.424   4.204
 1365SOL    HW1 4132   0.427   4.334   4.201
 1365SOL    HW2 4133   0.288   4.413   4.237
 1366SOL     OW 4134   0.614   3.846   3.841
 1366SOL    HW1 4135   0.712   3.824   3.848
 1366SOL    HW2 4136   0.583   3.829   3.748
 1367SOL     OW 4137   0.922   4.227   4.623
 1367SOL    HW1 4138   0.897   4.218   4.527
 1367SOL    HW2 4139   0.970   4.145   4.654
 1368SOL     OW 4140   0.539   3.788   4.236
 1368SOL    HW1 4141   0.458   3.789   4.294
 1368SOL    HW2 4142   0.542   3.871   4.181
 1369SOL     OW 4143   0.297   3.759   3.895
 1369SOL    HW1 4144   0.346   3.843   3.874
 1369SOL    HW2 4145   0.359   3.694   3.940
 1370SOL     OW 4146   0.935   3.960   4.204
 1370SOL    HW1 4147   0.887   4.001   4.126
 1370SOL    HW2 4148   1.034   3.958   4.185
 1371SOL     OW 4149   1.032   4.273   3.740
 1371SOL    HW1 4150   0.991   4.355   3.701
 1371SOL    HW2 4151   1.096   4.299   3.813
 1372SOL     OW 4152   0.866   4.178   4.366
 1372SOL    HW1 4153   0.834   4.250   4.304
 1372SOL    HW2 4154   0.890   4.097   4.313
 1373SOL     OW 4155   1.017   3.763   4.477
 1373SOL    HW1 4156   0.945   3.768   4.408
 1373SOL    HW2 4157   0.993   3.694   4.546
 1374SOL     OW 4158   1.429   4.897   4.591
 1374SOL    HW1 4159   1.374   4.813   4.584
 1374SOL    HW2 4160   1.455   4.926   4.499
 1375SOL     OW 4161   1.466   4.314   4.716
 1375SOL    HW1 4162   1.436   4.219   4.723
 1375SOL    HW2 4163   1.539   4.330   4.782
 1376SOL     OW 4164   1.857   4.557   4.101
 1376SOL    HW1 4165   1.899   4.493   4.165
 1376SOL    HW2 4166   1.819   4.506   4.023
 1377SOL     OW 4167   1.390   4.299   3.802
 1377SOL    HW1 4168   1.336   4.278   3.883
 1377SOL    HW2 4169   1.481   4.258   3.811
 1378SOL     OW 4170   0.527   3.980   4.052
 1378SOL    HW1 4171   0.554   3.921   3.977
 1378SOL    HW2 4172   0.527   4.075   4.021
 1379SOL     OW 4173   1.638   4.823   4.803
 1379SOL    HW1 4174   1.643   4.904   4.862
 1379SOL    HW2 4175   1.552   4.825   4.752
 1380SOL     OW 4176   0.566   4.261   4.589
 1380SOL    HW1 4177   0.578   4.327   4.515
 1380SOL    HW2 4178   0.612   4.295   4.672
 1381SOL     OW 4179   1.582   4.363   4.196
 1381SOL    HW1 4180   1.551   4.424   4.269
 1381SOL    HW2 4181   1.632   4.415   4.127
 1382SOL     OW 4182   0.573   4.594   4.753
 1382SOL    HW1 4183   0.617   4.683   4.744
 1382SOL    HW2 4184   0.510   4.594   4.830
 1383SOL     OW 4185   1.209   4.249   3.999
 1383SOL    HW1 4186   1.222   4.165   4.053
 1383SOL    HW2 4187   1.180   4.323   4.059
 1384SOL     OW 4188   0.307   3.937   4.955
 1384SOL    HW1 4189   0.284   3.974   5.045
 1384SOL    HW2 4190   0.277   3.842   4.949
 1385SOL     OW 4191   0.732   4.358   4.788
 1385SOL    HW1 4192   0.791   4.332   4.712
 1385SOL    HW2 4193   0.704   4.454   4.777
 1386SOL     OW 4194   0.307   3.787   4.342
 1386SOL    HW1 4195   0.296   3.881   4.375
 1386SOL    HW2 4196   0.302   3.724   4.419
 1387SOL     OW 4197   1.622   4.091   4.098
 1387SOL    HW1 4198   1.624   4.015   4.162
 1387SOL    HW2 4199   1.574   4.168   4.138
 1388SOL     OW 4200   1.540   3.998   3.849
 1388SOL    HW1 4201   1.479   3.923   3.872
 1388SOL    HW2 4202   1.562   4.050   3.932
 1389SOL     OW 4203   1.303   4.562   3.766
 1389SOL    HW1 4204   1.337   4.469   3.781
 1389SOL    HW2 4205   1.321   4.589   3.671
 1390SOL     OW 4206   0.319   4.534   4.673
 1390SOL    HW1 4207   0.412   4.570   4.678
 1390SOL    HW2 4208   0.313   4.449   4.725
 1391SOL     OW 4209   0.339   4.233   4.730
 1391SOL    HW1 4210   0.287   4.150   4.713
 1391SOL    HW2 4211   0.416   4.238   4.666
 1392SOL     OW 4212   1.002   4.520   4.962
 1392SOL    HW1 4213   1.043   4.488   5.048
 1392SOL    HW2 4214   0.906   4.493   4.959
 1393SOL     OW 4215   0.815   4.296   4.049
 1393SOL    HW1 4216   0.822   4.207   4.003
 1393SOL    HW2 4217   0.721   4.330   4.041
 1394SOL     OW 4218   0.671   4.188   4.993
 1394SOL    HW1 4219   0.637   4.099   4.963
 1394SOL    HW2 4220   0.697   4.242   4.913
 1395SOL     OW 4221   0.473   4.224   3.915
 1395SOL    HW1 4222   0.534   4.304   3.919
 1395SOL    HW2 4223   0.378   4.255   3.922
 1396SOL     OW 4224   1.302   4.579   4.033
 1396SOL    HW1 4225   1.216   4.548   4.075
 1396SOL    HW2 4226   1.298   4.565   3.934
 1397SOL     OW 4227   1.726   3.859   4.247
 1397SOL    HW1 4228   1.799   3.842   4.180
 1397SOL    HW2 4229   1.695   3.772   4.285
 1398SOL     OW 4230   1.280   4.651   4.396
 1398SOL    HW1 4231   1.340   4.570   4.398
 1398SOL    HW2 4232   1.320   4.720   4.336
 1399SOL     OW 4233   1.841   3.899   4.687
 1399SOL    HW1 4234   1.880   3.814   4.651
 1399SOL    HW2 4235   1.743   3.901   4.668
 1400SOL     OW 4236   0.263   4.050   4.444
 1400SOL    HW1 4237   0.184   4.101   4.410
 1400SOL    HW2 4238   0.254   4.035   4.542
 1401SOL     OW 4239   0.916   4.634   4.015
 1401SOL    HW1 4240   0.979   4.672   3.947
 1401SOL    HW2 4241   0.956   4.551   4.054
 1402SOL     OW 4242   0.075   4.069   3.757
 1402SOL    HW1 4243  -0.017   4.041   3.728
 1402SOL    HW2 4244   0.106   4.146   3.701
 1403SOL     OW 4245   0.072   3.890   4.042
 1403SOL    HW1 4246   0.055   3.973   3.988
 1403SOL    HW2 4247   0.162   3.853   4.020
 1404SOL     OW 4248   1.183   5.059   3.843
 1404SOL    HW1 4249   1.084   5.048   3.845
 1404SOL    HW2 4250   1.217   5.074   3.936
 1405SOL     OW 4251   1.674   4.607   4.978
 1405SOL    HW1 4252   1.647   4.518   4.941
 1405SOL    HW2 4253   1.675   4.675   4.905
 1406SOL     OW 4254   1.225   4.049   4.173
 1406SOL    HW1 4255   1.290   3.975   4.162
 1406SOL    HW2 4256   1.245   4.099   4.257
 1407SOL     OW 4257   0.594   4.469   4.376
 1407SOL    HW1 4258   0.644   4.554   4.357
 1407SOL    HW2 4259   0.506   4.471   4.328
 1408SOL     OW 4260   0.859   4.680   4.585
 1408SOL    HW1 4261   0.913   4.611   4.633
 1408SOL    HW2 4262   0.827   4.749   4.651
 1409SOL     OW 4263   1.083   4.708   3.811
 1409SOL    HW1 4264   1.060   4.761   3.729
 1409SOL    HW2 4265   1.164   4.652   3.792
 1410SOL     OW 4266   0.079   4.964   4.377
 1410SOL    HW1 4267   0.078   4.917   4.465
 1410SOL    HW2 4268   0.161   4.936   4.326
 1411SOL     OW 4269   1.824   3.916   4.951
 1411SOL    HW1 4270   1.820   3.826   4.995
 1411SOL    HW2 4271   1.827   3.905   4.852
 1412SOL     OW 4272   0.428   4.148   4.244
 1412SOL    HW1 4273   0.458   4.076   4.182
 1412SOL    HW2 4274   0.389   4.108   4.327
 1413SOL     OW 4275   1.352   3.776   3.892
 1413SOL    HW1 4276   1.387   3.735   3.808
 1413SOL    HW2 4277   1.262   3.738   3.912
 1414SOL     OW 4278   1.300   4.177   4.415
 1414SOL    HW1 4279   1.241   4.257   4.419
 1414SOL    HW2 4280   1.315   4.142   4.508
 1415SOL     OW 4281   1.593   3.945   4.606
 1415SOL    HW1 4282   1.509   3.944   4.660
 1415SOL    HW2 4283   1.595   4.028   4.550
 1416SOL     OW 4284   0.039   4.801   4.024
 1416SOL    HW1 4285   0.138   4.790   4.015
 1416SOL    HW2 4286  -0.001   4.715   4.056
 1417SOL     OW 4287   2.092   0.628   0.113
 1417SOL    HW1 4288   1.999   0.626   0.150
 1417SOL    HW2 4289   2.093   0.589   0.021
 1418SOL     OW 4290   2.087   0.275   0.996
 1418SOL    HW1 4291   2.122   0.258   1.088
 1418SOL    HW2 4292   1.999   0.230   0.984
 1419SOL     OW 4293   1.881   0.368   0.647
 1419SOL    HW1 4294   1.799   0.411   0.686
 1419SOL    HW2 4295   1.853   0.295   0.584
 1420SOL     OW 4296   2.431   1.275   1.165
 1420SOL    HW1 4297   2.338   1.268   1.128
 1420SOL    HW2 4298   2.442   1.364   1.209
 1421SOL     OW 4299   3.417   1.511   0.703
 1421SOL    HW1 4300   3.360   1.495   0.784
 1421SOL    HW2 4301   3.358   1.521   0.623
 1422SOL     OW 4302   2.997   0.703   0.717
 1422SOL    HW1 4303   3.054   0.781   0.692
 1422SOL    HW2 4304   2.937   0.729   0.793
 1423SOL     OW 4305   3.617   0.607   0.231
 1423SOL    HW1 4306   3.605   0.594   0.132
 1423SOL    HW2 4307   3.587   0.526   0.280
 1424SOL     OW 4308   2.630   1.144   1.023
 1424SOL    HW1 4309   2.552   1.161   1.083
 1424SOL    HW2 4310   2.664   1.231   0.987
 1425SOL     OW 4311   2.712   0.798   1.823
 1425SOL    HW1 4312   2.708   0.874   1.888
 1425SOL    HW2 4313   2.734   0.834   1.732
 1426SOL     OW 4314   2.547   1.012   0.665
 1426SOL    HW1 4315   2.616   0.996   0.735
 1426SOL    HW2 4316   2.474   1.069   0.703
 1427SOL     OW 4317   2.548   1.161   1.803
 1427SOL    HW1 4318   2.608   1.240   1.817
 1427SOL    HW2 4319   2.462   1.192   1.762
 1428SOL     OW 4320   2.197   1.435   1.061
 1428SOL    HW1 4321   2.119   1.404   1.008
 1428SOL    HW2 4322   2.255   1.493   1.004
 1429SOL     OW 4323   3.322   1.505   1.339
 1429SOL    HW1 4324   3.346   1.599   1.365
 1429SOL    HW2 4325   3.306   1.451   1.421
 1430SOL     OW 4326   2.300   0.392   1.499
 1430SOL    HW1 4327   2.382   0.336   1.508
 1430SOL    HW2 4328   2.219   0.334   1.503
 1431SOL     OW 4329   3.465   0.447   0.737
 1431SOL    HW1 4330   3.391   0.493   0.687
 1431SOL    HW2 4331   3.516   0.515   0.790
 1432SOL     OW 4332   2.093   1.713   0.483
 1432SOL    HW1 4333   2.127   1.790   0.537
 1432SOL    HW2 4334   2.137   1.713   0.393
 1433SOL     OW 4335   2.989   1.341   1.690
 1433SOL    HW1 4336   3.036   1.341   1.778
 1433SOL    HW2 4337   2.941   1.254   1.679
 1434SOL     OW 4338   2.092   1.434   0.538
 1434SOL    HW1 4339   2.066   1.530   0.538
 1434SOL    HW2 4340   2.021   1.380   0.583
 1435SOL     OW 4341   2.102   1.091   0.886
 1435SOL    HW1 4342   2.116   1.007   0.938
 1435SOL    HW2 4343   2.047   1.155   0.941
 1436SOL     OW 4344   2.482   1.786   1.439
 1436SOL    HW1 4345   2.390   1.769   1.474
 1436SOL    HW2 4346   2.510   1.878   1.465
 1437SOL     OW 4347   2.468   0.964   0.123
 1437SOL    HW1 4348   2.475   1.048   0.069
 1437SOL    HW2 4349   2.514   0.977   0.211
 1438SOL     OW 4350   3.456   0.114   1.480
 1438SOL    HW1 4351   3.438   0.181   1.408
 1438SOL    HW2 4352   3.453   0.160   1.569
 1439SOL     OW 4353   1.984   0.643   0.563
 1439SOL    HW1 4354   1.939   0.555   0.580
 1439SOL    HW2 4355   1.983   0.697   0.647
 1440SOL     OW 4356   3.704   1.767   0.359
 1440SOL    HW1 4357   3.758   1.738   0.439
 1440SOL    HW2 4358   3.734   1.857   0.330
 1441SOL     OW 4359   1.889   1.596   0.117
 1441SOL    HW1 4360   1.870   1.500   0.138
 1441SOL    HW2 4361   1.856   1.654   0.192
 1442SOL     OW 4362   3.551   0.922   0.612
 1442SOL    HW1 4363   3.646   0.893   0.620
 1442SOL    HW2 4364   3.543   0.987   0.537
 1443SOL     OW 4365   3.503   1.108   0.432
 1443SOL    HW1 4366   3.589   1.110   0.380
 1443SOL    HW2 4367   3.517   1.155   0.520
 1444SOL     OW 4368   1.975   0.737   1.597
 1444SOL    HW1 4369   2.063   0.724   1.642
 1444SOL    HW2 4370   1.962   0.834   1.575
 1445SOL     OW 4371   2.475   1.365   0.726
 1445SOL    HW1 4372   2.426   1.278   0.735
 1445SOL    HW2 4373   2.452   1.408   0.639
 1446SOL     OW 4374   3.155   1.228   1.423
 1446SOL    HW1 4375   3.192   1.155   1.365
 1446SOL    HW2 4376   3.207   1.233   1.508
 1447SOL     OW 4377   2.671   0.004   0.502
 1447SOL    HW1 4378   2.711   0.095   0.493
 1447SOL    HW2 4379   2.571   0.012   0.508
 1448SOL     OW 4380   2.059   0.976   1.264
 1448SOL    HW1 4381   2.148   0.931   1.250
 1448SOL    HW2 4382   1.986   0.911   1.245
 1449SOL     OW 4383   3.387   0.999   0.190
 1449SOL    HW1 4384   3.324   0.923   0.203
 1449SOL    HW2 4385   3.435   1.017   0.276
 1450SOL     OW 4386   3.049   1.792   1.616
 1450SOL    HW1 4387   3.073   1.852   1.540
 1450SOL    HW2 4388   3.056   1.697   1.586
 1451SOL     OW 4389   2.179   0.251   1.801
 1451SOL    HW1 4390   2.250   0.322   1.807
 1451SOL    HW2 4391   2.091   0.290   1.829
 1452SOL     OW 4392   3.328   1.417   0.953
 1452SOL    HW1 4393   3.269   1.423   1.033
 1452SOL    HW2 4394   3.313   1.329   0.907
 1453SOL     OW 4395   3.529   1.714   0.572
 1453SOL    HW1 4396   3.488   1.691   0.484
 1453SOL    HW2 4397   3.511   1.640   0.637
 1454SOL     OW 4398   2.460   0.729   0.270
 1454SOL    HW1 4399   2.484   0.798   0.202
 1454SOL    HW2 4400   2.382   0.762   0.324
 1455SOL     OW 4401   3.143   0.345   0.944
 1455SOL    HW1 4402   3.057   0.295   0.931
 1455SOL    HW2 4403   3.205   0.291   1.000
 1456SOL     OW 4404   3.438   1.662   0.307
 1456SOL    HW1 4405   3.527   1.708   0.310
 1456SOL    HW2 4406   3.417   1.638   0.212
 1457SOL     OW 4407   2.669   0.605   1.465
 1457SOL    HW1 4408   2.622   0.602   1.554
 1457SOL    HW2 4409   2.618   0.550   1.399
 1458SOL     OW 4410   3.256   0.469   1.674
 1458SOL    HW1 4411   3.236   0.512   1.762
 1458SOL    HW2 4412   3.334   0.407   1.683
 1459SOL     OW 4413   2.835   0.890   1.572
 1459SOL    HW1 4414   2.881   0.806   1.543
 1459SOL    HW2 4415   2.779   0.924   1.497
 1460SOL     OW 4416   2.853   0.410   1.242
 1460SOL    HW1 4417   2.776   0.444   1.296
 1460SOL    HW2 4418   2.819   0.359   1.163
 1461SOL     OW 4419   2.903   0.701   0.429
 1461SOL    HW1 4420   2.929   0.697   0.525
 1461SOL    HW2 4421   2.818   0.650   0.415
 1462SOL     OW 4422   1.938   0.811   0.789
 1462SOL    HW1 4423   2.037   0.799   0.798
 1462SOL    HW2 4424   1.914   0.906   0.810
 1463SOL     OW 4425   1.992   1.821   1.571
 1463SOL    HW1 4426   1.982   1.806   1.670
 1463SOL    HW2 4427   1.906   1.857   1.535
 1464SOL     OW 4428   2.727   0.348   0.195
 1464SOL    HW1 4429   2.786   0.411   0.146
 1464SOL    HW2 4430   2.746   0.254   0.166
 1465SOL     OW 4431   3.581   0.585   1.831
 1465SOL    HW1 4432   3.555   0.674   1.795
 1465SOL    HW2 4433   3.579   0.517   1.758
 1466SOL     OW 4434   3.224   1.144   0.545
 1466SOL    HW1 4435   3.307   1.115   0.497
 1466SOL    HW2 4436   3.175   1.211   0.489
 1467SOL     OW 4437   2.412   0.196   0.885
 1467SOL    HW1 4438   2.407   0.191   0.985
 1467SOL    HW2 4439   2.414   0.292   0.856
 1468SOL     OW 4440   2.870   1.456   0.477
 1468SOL    HW1 4441   2.824   1.528   0.425
 1468SOL    HW2 4442   2.866   1.476   0.575
 1469SOL     OW 4443   2.213   1.801   0.853
 1469SOL    HW1 4444   2.263   1.715   0.859
 1469SOL    HW2 4445   2.278   1.878   0.850
 1470SOL     OW 4446   3.657   1.066   0.873
 1470SOL    HW1 4447   3.595   1.051   0.797
 1470SOL    HW2 4448   3.605   1.077   0.958
 1471SOL     OW 4449   3.089   1.550   1.506
 1471SOL    HW1 4450   3.095   1.473   1.570
 1471SOL    HW2 4451   3.037   1.524   1.426
 1472SOL     OW 4452   2.183   0.943   0.242
 1472SOL    HW1 4453   2.265   0.982   0.200
 1472SOL    HW2 4454   2.156   0.861   0.193
 1473SOL     OW 4455   3.320   0.735   0.728
 1473SOL    HW1 4456   3.315   0.670   0.803
 1473SOL    HW2 4457   3.400   0.794   0.741
 1474SOL     OW 4458   2.323   1.266   1.727
 1474SOL    HW1 4459   2.273   1.267   1.641
 1474SOL    HW2 4460   2.260   1.248   1.803
 1475SOL     OW 4461   2.973   1.776   0.237
 1475SOL    HW1 4462   2.913   1.714   0.287
 1475SOL    HW2 4463   3.004   1.732   0.152
 1476SOL     OW 4464   2.064   0.285   1.498
 1476SOL    HW1 4465   1.984   0.345   1.485
 1476SOL    HW2 4466   2.054   0.236   1.584
 1477SOL     OW 4467   3.494   1.377   0.081
 1477SOL    HW1 4468   3.462   1.471   0.071
 1477SOL    HW2 4469   3.418   1.314   0.069
 1478SOL     OW 4470   2.326   1.743   0.323
 1478SOL    HW1 4471   2.359   1.782   0.409
 1478SOL    HW2 4472   2.402   1.736   0.258
 1479SOL     OW 4473   3.262   0.107   0.426
 1479SOL    HW1 4474   3.238   0.070   0.336
 1479SOL    HW2 4475   3.361   0.123   0.430
 1480SOL     OW 4476   2.111   1.785   1.241
 1480SOL    HW1 4477   2.168   1.720   1.291
 1480SOL    HW2 4478   2.095   1.752   1.148
 1481SOL     OW 4479   2.802   1.698   0.904
 1481SOL    HW1 4480   2.882   1.641   0.925
 1481SOL    HW2 4481   2.753   1.658   0.827
 1482SOL     OW 4482   2.244   0.700   0.480
 1482SOL    HW1 4483   2.289   0.610   0.477
 1482SOL    HW2 4484   2.150   0.689   0.513
 1483SOL     OW 4485   3.409   0.222   1.729
 1483SOL    HW1 4486   3.404   0.259   1.821
 1483SOL    HW2 4487   3.337   0.153   1.717
 1484SOL     OW 4488   2.476   0.122   0.117
 1484SOL    HW1 4489   2.574   0.100   0.124
 1484SOL    HW2 4490   2.445   0.105   0.024
 1485SOL     OW 4491   2.643   0.264   1.749
 1485SOL    HW1 4492   2.710   0.203   1.792
 1485SOL    HW2 4493   2.570   0.283   1.814
 1486SOL     OW 4494   2.750   1.514   1.195
 1486SOL    HW1 4495   2.727   1.489   1.101
 1486SOL    HW2 4496   2.811   1.445   1.234
 1487SOL     OW 4497   3.213   0.590   1.433
 1487SOL    HW1 4498   3.241   0.547   1.518
 1487SOL    HW2 4499   3.238   0.686   1.434
 1488SOL     OW 4500   2.665   1.402   0.924
 1488SOL    HW1 4501   2.755   1.416   0.882
 1488SOL    HW2 4502   2.594   1.404   0.853
 1489SOL     OW 4503   2.784   0.503   0.899
 1489SOL    HW1 4504   2.759   0.494   0.803
 1489SOL    HW2 4505   2.832   0.421   0.930
 1490SOL     OW 4506   2.401   0.064   0.512
 1490SOL    HW1 4507   2.320   0.065   0.570
 1490SOL    HW2 4508   2.404   0.147   0.457
 1491SOL     OW 4509   3.296   1.188   0.041
 1491SOL    HW1 4510   3.328   1.112   0.098
 1491SOL    HW2 4511   3.204   1.215   0.071
 1492SOL     OW 4512   2.159   0.035   0.171
 1492SOL    HW1 4513   2.208   0.119   0.150
 1492SOL    HW2 4514   2.221  -0.030   0.216
 1493SOL     OW 4515   2.797   0.236   0.480
 1493SOL    HW1 4516   2.749   0.277   0.402
 1493SOL    HW2 4517   2.896   0.234   0.461
 1494SOL     OW 4518   2.938   0.683   1.464
 1494SOL    HW1 4519   2.858   0.622   1.467
 1494SOL    HW2 4520   3.019   0.630   1.440
 1495SOL     OW 4521   3.089   1.570   0.793
 1495SOL    HW1 4522   3.110   1.644   0.728
 1495SOL    HW2 4523   3.157   1.570   0.866
 1496SOL     OW 4524   2.321   1.152   0.741
 1496SOL    HW1 4525   2.250   1.125   0.806
 1496SOL    HW2 4526   2.295   1.124   0.648
 1497SOL     OW 4527   3.133   1.797   0.591
 1497SOL    HW1 4528   3.177   1.861   0.527
 1497SOL    HW2 4529   3.083   1.849   0.661
 1498SOL     OW 4530   2.894   0.549   0.016
 1498SOL    HW1 4531   2.853   0.631  -0.023
 1498SOL    HW2 4532   2.958   0.575   0.089
 1499SOL     OW 4533   1.940   0.556   1.386
 1499SOL    HW1 4534   2.032   0.555   1.345
 1499SOL    HW2 4535   1.934   0.630   1.453
 1500SOL     OW 4536   2.423   0.222   1.147
 1500SOL    HW1 4537   2.461   0.138   1.184
 1500SOL    HW2 4538   2.335   0.241   1.191
 1501SOL     OW 4539   2.728   0.454   0.642
 1501SOL    HW1 4540   2.696   0.526   0.580
 1501SOL    HW2 4541   2.752   0.373   0.589
 1502SOL     OW 4542   2.879   0.039   0.753
 1502SOL    HW1 4543   2.807   0.044   0.684
 1502SOL    HW2 4544   2.855  -0.030   0.822
 1503SOL     OW 4545   3.291   1.173   0.867
 1503SOL    HW1 4546   3.236   1.089   0.860
 1503SOL    HW2 4547   3.317   1.202   0.775
 1504SOL     OW 4548   3.328   0.590   0.992
 1504SOL    HW1 4549   3.298   0.495   0.999
 1504SOL    HW2 4550   3.401   0.606   1.058
 1505SOL     OW 4551   3.719   0.833   0.377
 1505SOL    HW1 4552   3.761   0.769   0.441
 1505SOL    HW2 4553   3.681   0.782   0.299
 1506SOL     OW 4554   2.350   1.385   0.174
 1506SOL    HW1 4555   2.263   1.370   0.221
 1506SOL    HW2 4556   2.333   1.411   0.079
 1507SOL     OW 4557   3.526   1.280   0.657
 1507SOL    HW1 4558   3.625   1.288   0.671
 1507SOL    HW2 4559   3.481   1.364   0.688
 1508SOL     OW 4560   3.252   0.575   0.078
 1508SOL    HW1 4561   3.198   0.554   0.159
 1508SOL    HW2 4562   3.343   0.534   0.087
 1509SOL     OW 4563   2.389   0.256   0.328
 1509SOL    HW1 4564   2.416   0.197   0.253
 1509SOL    HW2 4565   2.389   0.351   0.297
 1510SOL     OW 4566   3.616   1.223   1.588
 1510SOL    HW1 4567   3.707   1.184   1.575
 1510SOL    HW2 4568   3.624   1.319   1.612
 1511SOL     OW 4569   2.926   1.347   1.340
 1511SOL    HW1 4570   2.846   1.324   1.395
 1511SOL    HW2 4571   3.009   1.321   1.389
 1512SOL     OW 4572   3.454   1.629   1.625
 1512SOL    HW1 4573   3.481   1.663   1.535
 1512SOL    HW2 4574   3.533   1.591   1.671
 1513SOL     OW 4575   2.973   1.195   1.100
 1513SOL    HW1 4576   2.933   1.239   1.181
 1513SOL    HW2 4577   2.932   1.232   1.017
 1514SOL     OW 4578   3.500   1.099   1.079
 1514SOL    HW1 4579   3.505   1.180   1.138
 1514SOL    HW2 4580   3.414   1.101   1.028
 1515SOL     OW 4581   2.777   0.089   1.402
 1515SOL    HW1 4582   2.802   0.069   1.307
 1515SOL    HW2 4583   2.849   0.145   1.444
 1516SOL     OW 4584   2.842   1.116   1.719
 1516SOL    HW1 4585   2.743   1.122   1.729
 1516SOL    HW2 4586   2.865   1.036   1.663
 1517SOL     OW 4587   2.567   1.050   0.368
 1517SOL    HW1 4588   2.553   1.057   0.467
 1517SOL    HW2 4589   2.651   0.999   0.350
 1518SOL     OW 4590   2.272   0.813   1.251
 1518SOL    HW1 4591   2.358   0.825   1.301
 1518SOL    HW2 4592   2.230   0.726   1.278
 1519SOL     OW 4593   3.136   0.386   1.262
 1519SOL    HW1 4594   3.157   0.460   1.326
 1519SOL    HW2 4595   3.047   0.403   1.219
 1520SOL     OW 4596   1.926   1.564   1.331
 1520SOL    HW1 4597   1.880   1.646   1.297
 1520SOL    HW2 4598   2.024   1.583   1.340
 1521SOL     OW 4599   2.229   1.100   0.501
 1521SOL    HW1 4600   2.222   1.183   0.445
 1521SOL    HW2 4601   2.233   1.020   0.441
 1522SOL     OW 4602   2.428   0.537   0.865
 1522SOL    HW1 4603   2.440   0.603   0.791
 1522SOL    HW2 4604   2.474   0.571   0.948
 1523SOL     OW 4605   3.114   1.348   0.388
 1523SOL    HW1 4606   3.164   1.425   0.428
 1523SOL    HW2 4607   3.019   1.350   0.420
 1524SOL     OW 4608   3.134   1.445   1.142
 1524SOL    HW1 4609   3.181   1.458   1.229
 1524SOL    HW2 4610   3.068   1.371   1.151
 1525SOL     OW 4611   3.444   0.639   0.472
 1525SOL    HW1 4612   3.413   0.700   0.545
 1525SOL    HW2 4613   3.494   0.691   0.403
 1526SOL     OW 4614   2.216   1.510   1.329
 1526SOL    HW1 4615   2.195   1.466   1.242
 1526SOL    HW2 4616   2.313   1.536   1.332
 1527SOL     OW 4617   2.264   0.751   1.598
 1527SOL    HW1 4618   2.332   0.806   1.551
 1527SOL    HW2 4619   2.304   0.663   1.625
 1528SOL     OW 4620   3.449   0.779   1.670
 1528SOL    HW1 4621   3.357   0.817   1.665
 1528SOL    HW2 4622   3.509   0.826   1.605
 1529SOL     OW 4623   2.875   0.105   1.770
 1529SOL    HW1 4624   2.881   0.190   1.718
 1529SOL    HW2 4625   2.907   0.029   1.713
 1530SOL     OW 4626   2.366   0.050   1.740
 1530SOL    HW1 4627   2.324  -0.007   1.670
 1530SOL    HW2 4628   2.300   0.119   1.772
 1531SOL     OW 4629   2.435   0.870   1.029
 1531SOL    HW1 4630   2.479   0.959   1.020
 1531SOL    HW2 4631   2.372   0.870   1.106
 1532SOL     OW 4632   3.222   0.862   1.045
 1532SOL    HW1 4633   3.147   0.862   0.979
 1532SOL    HW2 4634   3.259   0.770   1.054
 1533SOL     OW 4635   3.071   0.525   0.275
 1533SOL    HW1 4636   3.084   0.441   0.329
 1533SOL    HW2 4637   3.042   0.599   0.335
 1534SOL     OW 4638   2.169   0.213   1.231
 1534SOL    HW1 4639   2.146   0.250   1.321
 1534SOL    HW2 4640   2.139   0.118   1.225
 1535SOL     OW 4641   1.899   1.310   1.282
 1535SOL    HW1 4642   1.952   1.261   1.350
 1535SOL    HW2 4643   1.921   1.408   1.287
 1536SOL     OW 4644   2.594   0.634   1.064
 1536SOL    HW1 4645   2.653   0.608   0.988
 1536SOL    HW2 4646   2.566   0.730   1.053
 1537SOL     OW 4647   3.590   0.935   1.854
 1537SOL    HW1 4648   3.544   0.928   1.765
 1537SOL    HW2 4649   3.528   0.979   1.920
 1538SOL     OW 4650   2.169   0.063   0.618
 1538SOL    HW1 4651   2.158   0.157   0.651
 1538SOL    HW2 4652   2.164   0.000   0.695
 1539SOL     OW 4653   3.484   0.367   0.374
 1539SOL    HW1 4654   3.486   0.291   0.438
 1539SOL    HW2 4655   3.436   0.444   0.414
 1540SOL     OW 4656   2.885   0.766   0.966
 1540SOL    HW1 4657   2.900   0.787   1.062
 1540SOL    HW2 4658   2.855   0.671   0.957
 1541SOL     OW 4659   2.842   1.573   1.700
 1541SOL    HW1 4660   2.822   1.617   1.612
 1541SOL    HW2 4661   2.881   1.482   1.684
 1542SOL     OW 4662   3.721   1.518   1.605
 1542SOL    HW1 4663   3.735   1.545   1.510
 1542SOL    HW2 4664   3.804   1.540   1.658
 1543SOL     OW 4665   2.212   0.898   1.804
 1543SOL    HW1 4666   2.288   0.942   1.852
 1543SOL    HW2 4667   2.247   0.851   1.722
 1544SOL     OW 4668   3.402   0.274   0.125
 1544SOL    HW1 4669   3.341   0.199   0.148
 1544SOL    HW2 4670   3.424   0.326   0.208
 1545SOL     OW 4671   3.165   0.838   0.042
 1545SOL    HW1 4672   3.199   0.745   0.057
 1545SOL    HW2 4673   3.183   0.865  -0.053
 1546SOL     OW 4674   2.930   1.333   0.849
 1546SOL    HW1 4675   2.937   1.249   0.794
 1546SOL    HW2 4676   2.992   1.402   0.813
 1547SOL     OW 4677   2.181   0.810   0.949
 1547SOL    HW1 4678   2.274   0.846   0.954
 1547SOL    HW2 4679   2.175   0.725   1.001
 1548SOL     OW 4680   2.201   0.509   1.006
 1548SOL    HW1 4681   2.149   0.426   0.989
 1548SOL    HW2 4682   2.278   0.514   0.942
 1549SOL     OW 4683   3.000   0.380   1.678
 1549SOL    HW1 4684   2.955   0.443   1.742
 1549SOL    HW2 4685   3.093   0.411   1.661
 1550SOL     OW 4686   3.022   0.207   1.477
 1550SOL    HW1 4687   3.022   0.271   1.554
 1550SOL    HW2 4688   3.050   0.255   1.394
 1551SOL     OW 4689   1.870   1.326   0.200
 1551SOL    HW1 4690   1.777   1.347   0.169
 1551SOL    HW2 4691   1.880   1.227   0.213
 1552SOL     OW 4692   1.950   1.801   0.927
 1552SOL    HW1 4693   1.908   1.715   0.900
 1552SOL    HW2 4694   2.044   1.804   0.893
 1553SOL     OW 4695   2.366   1.568   0.910
 1553SOL    HW1 4696   2.432   1.642   0.919
 1553SOL    HW2 4697   2.410   1.489   0.868
 1554SOL     OW 4698   2.864   0.796   1.238
 1554SOL    HW1 4699   2.905   0.764   1.324
 1554SOL    HW2 4700   2.768   0.769   1.235
 1555SOL     OW 4701   1.902   0.544   1.114
 1555SOL    HW1 4702   1.987   0.511   1.073
 1555SOL    HW2 4703   1.915   0.559   1.212
 1556SOL     OW 4704   2.051   0.520   1.722
 1556SOL    HW1 4705   2.110   0.480   1.652
 1556SOL    HW2 4706   1.993   0.591   1.681
 1557SOL     OW 4707   3.231   0.950   1.660
 1557SOL    HW1 4708   3.270   1.039   1.680
 1557SOL    HW2 4709   3.241   0.930   1.563
 1558SOL     OW 4710   2.677   0.572   0.325
 1558SOL    HW1 4711   2.684   0.483   0.279
 1558SOL    HW2 4712   2.583   0.606   0.317
 1559SOL     OW 4713   3.519   0.604   1.206
 1559SOL    HW1 4714   3.481   0.535   1.268
 1559SOL    HW2 4715   3.601   0.568   1.162
 1560SOL     OW 4716   2.114   1.564   1.744
 1560SOL    HW1 4717   2.084   1.621   1.820
 1560SOL    HW2 4718   2.107   1.467   1.770
 1561SOL     OW 4719   2.533   0.464   1.269
 1561SOL    HW1 4720   2.499   0.375   1.239
 1561SOL    HW2 4721   2.559   0.518   1.189
 1562SOL     OW 4722   2.792   1.678   1.465
 1562SOL    HW1 4723   2.768   1.660   1.370
 1562SOL    HW2 4724   2.822   1.772   1.475
 1563SOL     OW 4725   2.335   0.500   0.191
 1563SOL    HW1 4726   2.396   0.580   0.195
 1563SOL    HW2 4727   2.240   0.531   0.198
 1564SOL     OW 4728   2.021   1.137   1.466
 1564SOL    HW1 4729   2.043   1.076   1.542
 1564SOL    HW2 4730   2.031   1.088   1.380
 1565SOL     OW 4731   3.209   1.059   1.234
 1565SOL    HW1 4732   3.233   0.996   1.160
 1565SOL    HW2 4733   3.119   1.099   1.216
 1566SOL     OW 4734   3.164   0.855   0.309
 1566SOL    HW1 4735   3.078   0.824   0.351
 1566SOL    HW2 4736   3.160   0.841   0.210
 1567SOL     OW 4737   3.621   1.747   1.154
 1567SOL    HW1 4738   3.682   1.777   1.081
 1567SOL    HW2 4739   3.583   1.658   1.132
 1568SOL     OW 4740   3.114   1.731   1.128
 1568SOL    HW1 4741   3.198   1.736   1.074
 1568SOL    HW2 4742   3.091   1.635   1.146
 1569SOL     OW 4743   1.945   1.258   1.022
 1569SOL    HW1 4744   1.940   1.257   1.122
 1569SOL    HW2 4745   1.862   1.217   0.984
 1570SOL     OW 4746   2.550   1.662   1.716
 1570SOL    HW1 4747   2.494   1.743   1.725
 1570SOL    HW2 4748   2.602   1.666   1.630
 1571SOL     OW 4749   2.765   0.086   0.133
 1571SOL    HW1 4750   2.816   0.087   0.047
 1571SOL    HW2 4751   2.821   0.044   0.204
 1572SOL     OW 4752   3.588   0.135   0.523
 1572SOL    HW1 4753   3.661   0.118   0.456
 1572SOL    HW2 4754   3.557   0.048   0.561
 1573SOL     OW 4755   3.250   1.573   0.477
 1573SOL    HW1 4756   3.317   1.585   0.403
 1573SOL    HW2 4757   3.210   1.662   0.500
 1574SOL     OW 4758   1.992   1.794   1.851
 1574SOL    HW1 4759   1.951   1.720   1.904
 1574SOL    HW2 4760   2.056   1.845   1.909
 1575SOL     OW 4761   3.142   0.927   0.672
 1575SOL    HW1 4762   3.202   0.846   0.674
 1575SOL    HW2 4763   3.182   0.996   0.612
 1576SOL     OW 4764   2.692   1.273   1.422
 1576SOL    HW1 4765   2.687   1.306   1.517
 1576SOL    HW2 4766   2.606   1.292   1.376
 1577SOL     OW 4767   2.534   1.616   0.154
 1577SOL    HW1 4768   2.543   1.626   0.055
 1577SOL    HW2 4769   2.494   1.527   0.175
 1578SOL     OW 4770   3.512   1.720   1.394
 1578SOL    HW1 4771   3.565   1.730   1.310
 1578SOL    HW2 4772   3.485   1.810   1.428
 1579SOL     OW 4773   3.703   0.175   0.963
 1579SOL    HW1 4774   3.742   0.090   0.927
 1579SOL    HW2 4775   3.605   0.177   0.944
 1580SOL     OW 4776   2.125   0.326   0.720
 1580SOL    HW1 4777   2.046   0.377   0.686
 1580SOL    HW2 4778   2.116   0.311   0.818
 1581SOL     OW 4779   3.056   1.612   0.031
 1581SOL    HW1 4780   3.062   1.519   0.068
 1581SOL    HW2 4781   2.997   1.612  -0.049
 1582SOL     OW 4782   2.684   1.002   1.372
 1582SOL    HW1 4783   2.724   1.001   1.280
 1582SOL    HW2 4784   2.694   1.094   1.412
 1583SOL     OW 4785   2.778   0.910   0.291
 1583SOL    HW1 4786   2.841   0.948   0.223
 1583SOL    HW2 4787   2.818   0.827   0.330
 1584SOL     OW 4788   3.366   1.607   0.044
 1584SOL    HW1 4789   3.274   1.644   0.051
 1584SOL    HW2 4790   3.404   1.627  -0.046
 1585SOL     OW 4791   2.234   1.288   1.490
 1585SOL    HW1 4792   2.221   1.381   1.456
 1585SOL    HW2 4793   2.150   1.236   1.477
 1586SOL     OW 4794   3.476   1.292   1.289
 1586SOL    HW1 4795   3.536   1.295   1.369
 1586SOL    HW2 4796   3.401   1.356   1.302
 1587SOL     OW 4797   2.901   1.098   0.696
 1587SOL    HW1 4798   2.831   1.051   0.750
 1587SOL    HW2 4799   2.960   1.030   0.653
 1588SOL     OW 4800   2.876   0.236   0.971
 1588SOL    HW1 4801   2.868   0.200   0.878
 1588SOL    HW2 4802   2.874   0.160   1.036
 1589SOL     OW 4803   2.452   1.487   0.491
 1589SOL    HW1 4804   2.494   1.429   0.421
 1589SOL    HW2 4805   2.408   1.566   0.447
 1590SOL     OW 4806   3.571   0.385   1.381
 1590SOL    HW1 4807   3.644   0.454   1.385
 1590SOL    HW2 4808   3.599   0.310   1.322
 1591SOL     OW 4809   2.117   1.348   0.290
 1591SOL    HW1 4810   2.021   1.349   0.263
 1591SOL    HW2 4811   2.129   1.401   0.374
 1592SOL     OW 4812   1.967   1.013   1.726
 1592SOL    HW1 4813   1.890   0.980   1.780
 1592SOL    HW2 4814   2.052   0.983   1.768
 1593SOL     OW 4815   2.534   0.203   1.489
 1593SOL    HW1 4816   2.624   0.187   1.449
 1593SOL    HW2 4817   2.542   0.208   1.588
 1594SOL     OW 4818   1.937   0.345   0.033
 1594SOL    HW1 4819   1.845   0.317   0.004
 1594SOL    HW2 4820   1.968   0.422  -0.023
 1595SOL     OW 4821   3.302   0.856   1.398
 1595SOL    HW1 4822   3.245   0.908   1.335
 1595SOL    HW2 4823   3.398   0.868   1.374
 1596SOL     OW 4824   1.934   0.166   0.318
 1596SOL    HW1 4825   1.917   0.249   0.264
 1596SOL    HW2 4826   2.024   0.129   0.296
 1597SOL     OW 4827   3.045   1.335   0.119
 1597SOL    HW1 4828   2.946   1.324   0.121
 1597SOL    HW2 4829   3.079   1.350   0.212
 1598SOL     OW 4830   2.475   0.842   1.431
 1598SOL    HW1 4831   2.531   0.923   1.414
 1598SOL    HW2 4832   2.534   0.762   1.434
 1599SOL     OW 4833   3.355   1.767   0.959
 1599SOL    HW1 4834   3.388   1.831   0.890
 1599SOL    HW2 4835   3.421   1.761   1.034
 1600SOL     OW 4836   2.578   0.565   1.708
 1600SOL    HW1 4837   2.597   0.630   1.782
 1600SOL    HW2 4838   2.638   0.485   1.717
 1601SOL     OW 4839   3.312   1.220   1.633
 1601SOL    HW1 4840   3.303   1.210   1.732
 1601SOL    HW2 4841   3.408   1.213   1.607
 1602SOL     OW 4842   2.252   1.741   1.560
 1602SOL    HW1 4843   2.161   1.782   1.558
 1602SOL    HW2 4844   2.245   1.647   1.592
 1603SOL     OW 4845   3.536   0.883   1.254
 1603SOL    HW1 4846   3.509   0.794   1.217
 1603SOL    HW2 4847   3.537   0.951   1.181
 1604SOL     OW 4848   3.087   0.325   0.449
 1604SOL    HW1 4849   3.152   0.251   0.438
 1604SOL    HW2 4850   3.107   0.375   0.533
 1605SOL     OW 4851   2.456   0.745   0.652
 1605SOL    HW1 4852   2.506   0.830   0.633
 1605SOL    HW2 4853   2.368   0.747   0.604
 1606SOL     OW 4854   3.639   0.342   1.642
 1606SOL    HW1 4855   3.622   0.373   1.548
 1606SOL    HW2 4856   3.555   0.305   1.680
 1607SOL     OW 4857   3.592   0.934   1.517
 1607SOL    HW1 4858   3.630   1.025   1.532
 1607SOL    HW2 4859   3.584   0.917   1.418
 1608SOL     OW 4860   2.721   1.374   0.016
 1608SOL    HW1 4861   2.675   1.389   0.104
 1608SOL    HW2 4862   2.765   1.459  -0.014
 1609SOL     OW 4863   2.523   1.790   0.953
 1609SOL    HW1 4864   2.477   1.878   0.940
 1609SOL    HW2 4865   2.622   1.802   0.946
 1610SOL     OW 4866   2.721   0.956   0.861
 1610SOL    HW1 4867   2.775   0.887   0.909
 1610SOL    HW2 4868   2.689   1.025   0.927
 1611SOL     OW 4869   2.945   0.984   0.087
 1611SOL    HW1 4870   2.922   1.037   0.005
 1611SOL    HW2 4871   3.026   0.928   0.068
 1612SOL     OW 4872   3.723   1.569   0.851
 1612SOL    HW1 4873   3.652   1.557   0.781
 1612SOL    HW2 4874   3.724   1.490   0.911
 1613SOL     OW 4875   2.083   1.314   1.844
 1613SOL    HW1 4876   2.018   1.241   1.823
 1613SOL    HW2 4877   2.087   1.328   1.942
 1614SOL     OW 4878   1.941   1.240   0.653
 1614SOL    HW1 4879   1.940   1.193   0.741
 1614SOL    HW2 4880   2.023   1.212   0.602
 1615SOL     OW 4881   2.534   1.391   1.624
 1615SOL    HW1 4882   2.456   1.341   1.662
 1615SOL    HW2 4883   2.531   1.486   1.655
 1616SOL     OW 4884   3.686   0.192   1.227
 1616SOL    HW1 4885   3.682   0.102   1.271
 1616SOL    HW2 4886   3.689   0.181   1.128
 1617SOL     OW 4887   2.290   0.424   0.520
 1617SOL    HW1 4888   2.320   0.352   0.458
 1617SOL    HW2 4889   2.251   0.384   0.603
 1618SOL     OW 4890   3.567   1.487   1.104
 1618SOL    HW1 4891   3.474   1.462   1.077
 1618SOL    HW2 4892   3.593   1.437   1.186
 1619SOL     OW 4893   2.179   0.547   1.280
 1619SOL    HW1 4894   2.217   0.488   1.352
 1619SOL    HW2 4895   2.219   0.521   1.192
 1620SOL     OW 4896   2.674   1.586   0.687
 1620SOL    HW1 4897   2.706   1.596   0.593
 1620SOL    HW2 4898   2.595   1.524   0.689
 1621SOL     OW 4899   3.286   0.214   1.112
 1621SOL    HW1 4900   3.338   0.149   1.167
 1621SOL    HW2 4901   3.237   0.277   1.173
 1622SOL     OW 4902   2.863   0.034   1.154
 1622SOL    HW1 4903   2.800  -0.038   1.123
 1622SOL    HW2 4904   2.956  -0.002   1.154
 1623SOL     OW 4905   2.632   1.330   0.301
 1623SOL    HW1 4906   2.586   1.243   0.318
 1623SOL    HW2 4907   2.723   1.327   0.342
 1624SOL     OW 4908   2.480   1.567   1.284
 1624SOL    HW1 4909   2.475   1.649   1.341
 1624SOL    HW2 4910   2.569   1.564   1.239
 1625SOL     OW 4911   3.214   0.052   0.168
 1625SOL    HW1 4912   3.249   0.011   0.084
 1625SOL    HW2 4913   3.124   0.014   0.188
 1626SOL     OW 4914   3.162   0.453   0.691
 1626SOL    HW1 4915   3.103   0.533   0.695
 1626SOL    HW2 4916   3.177   0.418   0.784
 1627SOL     OW 4917   3.455   0.221   0.882
 1627SOL    HW1 4918   3.371   0.220   0.936
 1627SOL    HW2 4919   3.457   0.304   0.826
 1628SOL     OW 4920   1.901   1.077   0.300
 1628SOL    HW1 4921   2.000   1.066   0.291
 1628SOL    HW2 4922   1.861   0.991   0.332
 1629SOL     OW 4923   2.737   1.646   0.337
 1629SOL    HW1 4924   2.660   1.611   0.283
 1629SOL    HW2 4925   2.705   1.717   0.399
 1630SOL     OW 4926   2.092   0.628   1.975
 1630SOL    HW1 4927   1.999   0.626   2.012
 1630SOL    HW2 4928   2.093   0.589   1.883
 1631SOL     OW 4929   2.087   0.275   2.858
 1631SOL    HW1 4930   2.122   0.258   2.950
 1631SOL    HW2 4931   1.999   0.230   2.846
 1632SOL     OW 4932   1.881   0.368   2.509
 1632SOL    HW1 4933   1.799   0.411   2.548
 1632SOL    HW2 4934   1.853   0.295   2.446
 1633SOL     OW 4935   2.431   1.275   3.027
 1633SOL    HW1 4936   2.338   1.268   2.990
 1633SOL    HW2 4937   2.442   1.364   3.071
 1634SOL     OW 4938   3.417   1.511   2.565
 1634SOL    HW1 4939   3.360   1.495   2.646
 1634SOL    HW2 4940   3.358   1.521   2.485
 1635SOL     OW 4941   2.997   0.703   2.579
 1635SOL    HW1 4942   3.054   0.781   2.554
 1635SOL    HW2 4943   2.937   0.729   2.655
 1636SOL     OW 4944   3.617   0.607   2.093
 1636SOL    HW1 4945   3.605   0.594   1.994
 1636SOL    HW2 4946   3.587   0.526   2.142
 1637SOL     OW 4947   2.630   1.144   2.885
 1637SOL    HW1 4948   2.552   1.161   2.945
 1637SOL    HW2 4949   2.664   1.231   2.849
 1638SOL     OW 4950   2.712   0.798   3.685
 1638SOL    HW1 4951   2.708   0.874   3.750
 1638SOL    HW2 4952   2.734   0.834   3.594
 1639SOL     OW 4953   2.547   1.012   2.527
 1639SOL    HW1 4954   2.616   0.996   2.597
 1639SOL    HW2 4955   2.474   1.069   2.565
 1640SOL     OW 4956   2.548   1.161   3.665
 1640SOL    HW1 4957   2.608   1.240   3.679
 1640SOL    HW2 4958   2.462   1.192   3.624
 1641SOL     OW 4959   2.197   1.435   2.923
 1641SOL    HW1 4960   2.119   1.404   2.870
 1641SOL    HW2 4961   2.255   1.493   2.866
 1642SOL     OW 4962   3.322   1.505   3.201
 1642SOL    HW1 4963   3.346   1.599   3.227
 1642SOL    HW2 4964   3.306   1.451   3.283
 1643SOL     OW 4965   2.300   0.392   3.361
 1643SOL    HW1 4966   2.382   0.336   3.370
 1643SOL    HW2 4967   2.219   0.334   3.365
 1644SOL     OW 4968   3.465   0.447   2.599
 1644SOL    HW1 4969   3.391   0.493   2.549
 1644SOL    HW2 4970   3.516   0.515   2.652
 1645SOL     OW 4971   2.093   1.713   2.345
 1645SOL    HW1 4972   2.127   1.790   2.399
 1645SOL    HW2 4973   2.137   1.713   2.255
 1646SOL     OW 4974   2.989   1.341   3.552
 1646SOL    HW1 4975   3.036   1.341   3.640
 1646SOL    HW2 4976   2.941   1.254   3.541
 1647SOL     OW 4977   2.092   1.434   2.400
 1647SOL    HW1 4978   2.066   1.530   2.400
 1647SOL    HW2 4979   2.021   1.380   2.445
 1648SOL     OW 4980   2.102   1.091   2.748
 1648SOL    HW1 4981   2.116   1.007   2.800
 1648SOL    HW2 4982   2.047   1.155   2.803
 1649SOL     OW 4983   2.482   1.786   3.301
 1649SOL    HW1 4984   2.390   1.769   3.336
 1649SOL    HW2 4985   2.510   1.878   3.327
 1650SOL     OW 4986   2.468   0.964   1.985
 1650SOL    HW1 4987   2.475   1.048   1.931
 1650SOL    HW2 4988   2.514   0.977   2.073
 1651SOL     OW 4989   3.456   0.114   3.342
 1651SOL    HW1 4990   3.438   0.181   3.270
 1651SOL    HW2 4991   3.453   0.160   3.431
 1652SOL     OW 4992   1.984   0.643   2.425
 1652SOL    HW1 4993   1.939   0.555   2.442
 1652SOL    HW2 4994   1.983   0.697   2.509
 1653SOL     OW 4995   3.704   1.767   2.221
 1653SOL    HW1 4996   3.758   1.738   2.301
 1653SOL    HW2 4997   3.734   1.857   2.192
 1654SOL     OW 4998   1.889   1.596   1.979
 1654SOL    HW1 4999   1.870   1.500   2.000
 1654SOL    HW2 5000   1.856   1.654   2.054
 1655SOL     OW 5001   3.551   0.922   2.474
 1655SOL    HW1 5002   3.646   0.893   2.482
 1655SOL    HW2 5003   3.543   0.987   2.399
 1656SOL     OW 5004   3.503   1.108   2.294
 1656SOL    HW1 5005   3.589   1.110   2.242
 1656SOL    HW2 5006   3.517   1.155   2.382
 1657SOL     OW 5007   1.975   0.737   3.459
 1657SOL    HW1 5008   2.063   0.724   3.504
 1657SOL    HW2 5009   1.962   0.834   3.437
 1658SOL     OW 5010   2.475   1.365   2.588
 1658SOL    HW1 5011   2.426   1.278   2.597
 1658SOL    HW2 5012   2.452   1.408   2.501
 1659SOL     OW 5013   3.155   1.228   3.285
 1659SOL    HW1 5014   3.192   1.155   3.227
 1659SOL    HW2 5015   3.207   1.233   3.370
 1660SOL     OW 5016   2.671   0.004   2.364
 1660SOL    HW1 5017   2.711   0.095   2.355
 1660SOL    HW2 5018   2.571   0.012   2.370
 1661SOL     OW 5019   2.059   0.976   3.126
 1661SOL    HW1 5020   2.148   0.931   3.112
 1661SOL    HW2 5021   1.986   0.911   3.107
 1662SOL     OW 5022   3.387   0.999   2.052
 1662SOL    HW1 5023   3.324   0.923   2.065
 1662SOL    HW2 5024   3.435   1.017   2.138
 1663SOL     OW 5025   3.049   1.792   3.478
 1663SOL    HW1 5026   3.073   1.852   3.402
 1663SOL    HW2 5027   3.056   1.697   3.448
 1664SOL     OW 5028   2.179   0.251   3.663
 1664SOL    HW1 5029   2.250   0.322   3.669
 1664SOL    HW2 5030   2.091   0.290   3.691
 1665SOL     OW 5031   3.328   1.417   2.815
 1665SOL    HW1 5032   3.269   1.423   2.895
 1665SOL    HW2 5033   3.313   1.329   2.769
 1666SOL     OW 5034   3.529   1.714   2.434
 1666SOL    HW1 5035   3.488   1.691   2.346
 1666SOL    HW2 5036   3.511   1.640   2.499
 1667SOL     OW 5037   2.460   0.729   2.132
 1667SOL    HW1 5038   2.484   0.798   2.064
 1667SOL    HW2 5039   2.382   0.762   2.186
 1668SOL     OW 5040   3.143   0.345   2.806
 1668SOL    HW1 5041   3.057   0.295   2.793
 1668SOL    HW2 5042   3.205   0.291   2.862
 1669SOL     OW 5043   3.438   1.662   2.169
 1669SOL    HW1 5044   3.527   1.708   2.172
 1669SOL    HW2 5045   3.417   1.638   2.074
 1670SOL     OW 5046   2.669   0.605   3.327
 1670SOL    HW1 5047   2.622   0.602   3.416
 1670SOL    HW2 5048   2.618   0.550   3.261
 1671SOL     OW 5049   3.256   0.469   3.536
 1671SOL    HW1 5050   3.236   0.512   3.624
 1671SOL    HW2 5051   3.334   0.407   3.545
 1672SOL     OW 5052   2.835   0.890   3.434
 1672SOL    HW1 5053   2.881   0.806   3.405
 1672SOL    HW2 5054   2.779   0.924   3.359
 1673SOL     OW 5055   2.853   0.410   3.104
 1673SOL    HW1 5056   2.776   0.444   3.158
 1673SOL    HW2 5057   2.819   0.359   3.025
 1674SOL     OW 5058   2.903   0.701   2.291
 1674SOL    HW1 5059   2.929   0.697   2.387
 1674SOL    HW2 5060   2.818   0.650   2.277
 1675SOL     OW 5061   1.938   0.811   2.651
 1675SOL    HW1 5062   2.037   0.799   2.660
 1675SOL    HW2 5063   1.914   0.906   2.672
 1676SOL     OW 5064   1.992   1.821   3.433
 1676SOL    HW1 5065   1.982   1.806   3.532
 1676SOL    HW2 5066   1.906   1.857   3.397
 1677SOL     OW 5067   2.727   0.348   2.057
 1677SOL    HW1 5068   2.786   0.411   2.008
 1677SOL    HW2 5069   2.746   0.254   2.028
 1678SOL     OW 5070   3.581   0.585   3.693
 1678SOL    HW1 5071   3.555   0.674   3.657
 1678SOL    HW2 5072   3.579   0.517   3.620
 1679SOL     OW 5073   3.224   1.144   2.407
 1679SOL    HW1 5074   3.307   1.115   2.359
 1679SOL    HW2 5075   3.175   1.211   2.351
 1680SOL     OW 5076   2.412   0.196   2.747
 1680SOL    HW1 5077   2.407   0.191   2.847
 1680SOL    HW2 5078   2.414   0.292   2.718
 1681SOL     OW 5079   2.870   1.456   2.339
 1681SOL    HW1 5080   2.824   1.528   2.287
 1681SOL    HW2 5081   2.866   1.476   2.437
 1682SOL     OW 5082   2.213   1.801   2.715
 1682SOL    HW1 5083   2.263   1.715   2.721
 1682SOL    HW2 5084   2.278   1.878   2.712
 1683SOL     OW 5085   3.657   1.066   2.735
 1683SOL    HW1 5086   3.595   1.051   2.659
 1683SOL    HW2 5087   3.605   1.077   2.820
 1684SOL     OW 5088   3.089   1.550   3.368
 1684SOL    HW1 5089   3.095   1.473   3.432
 1684SOL    HW2 5090   3.037   1.524   3.288
 1685SOL     OW 5091   2.183   0.943   2.104
 1685SOL    HW1 5092   2.265   0.982   2.062
 1685SOL    HW2 5093   2.156   0.861   2.055
 1686SOL     OW 5094   3.320   0.735   2.590
 1686SOL    HW1 5095   3.315   0.670   2.665
 1686SOL    HW2 5096   3.400   0.794   2.603
 1687SOL     OW 5097   2.323   1.266   3.589
 1687SOL    HW1 5098   2.273   1.267   3.503
 1687SOL    HW2 5099   2.260   1.248   3.665
 1688SOL     OW 5100   2.973   1.776   2.099
 1688SOL    HW1 5101   2.913   1.714   2.149
 1688SOL    HW2 5102   3.004   1.732   2.014
 1689SOL     OW 5103   2.064   0.285   3.360
 1689SOL    HW1 5104   1.984   0.345   3.347
 1689SOL    HW2 5105   2.054   0.236   3.446
 1690SOL     OW 5106   3.494   1.377   1.943
 1690SOL    HW1 5107   3.462   1.471   1.933
 1690SOL    HW2 5108   3.418   1.314   1.931
 1691SOL     OW 5109   2.326   1.743   2.185
 1691SOL    HW1 5110   2.359   1.782   2.271
 1691SOL    HW2 5111   2.402   1.736   2.120
 1692SOL     OW 5112   3.262   0.107   2.288
 1692SOL    HW1 5113   3.238   0.070   2.198
 1692SOL    HW2 5114   3.361   0.123   2.292
 1693SOL     OW 5115   2.111   1.785   3.103
 1693SOL    HW1 5116   2.168   1.720   3.153
 1693SOL    HW2 5117   2.095   1.752   3.010
 1694SOL     OW 5118   2.802   1.698   2.766
 1694SOL    HW1 5119   2.882   1.641   2.787
 1694SOL    HW2 5120   2.753   1.658   2.689
 1695SOL     OW 5121   2.244   0.700   2.342
 1695SOL    HW1 5122   2.289   0.610   2.339
 1695SOL    HW2 5123   2.150   0.689   2.375
 1696SOL     OW 5124   3.409   0.222   3.591
 1696SOL    HW1 5125   3.404   0.259   3.683
 1696SOL    HW2 5126   3.337   0.153   3.579
 1697SOL     OW 5127   2.476   0.122   1.979
 1697SOL    HW1 5128   2.574   0.100   1.986
 1697SOL    HW2 5129   2.445   0.105   1.886
 1698SOL     OW 5130   2.643   0.264   3.611
 1698SOL    HW1 5131   2.710   0.203   3.654
 1698SOL    HW2 5132   2.570   0.283   3.676
 1699SOL     OW 5133   2.750   1.514   3.057
 1699SOL    HW1 5134   2.727   1.489   2.963
 1699SOL    HW2 5135   2.811   1.445   3.096
 1700SOL     OW 5136   3.213   0.590   3.295
 1700SOL    HW1 5137   3.241   0.547   3.380
 1700SOL    HW2 5138   3.238   0.686   3.296
 1701SOL     OW 5139   2.665   1.402   2.786
 1701SOL    HW1 5140   2.755   1.416   2.744
 1701SOL    HW2 5141   2.594   1.404   2.715
 1702SOL     OW 5142   2.784   0.503   2.761
 1702SOL    HW1 5143   2.759   0.494   2.665
 1702SOL    HW2 5144   2.832   0.421   2.792
 1703SOL     OW 5145   2.401   0.064   2.374
 1703SOL    HW1 5146   2.320   0.065   2.432
 1703SOL    HW2 5147   2.404   0.147   2.319
 1704SOL     OW 5148   3.296   1.188   1.903
 1704SOL    HW1 5149   3.328   1.112   1.960
 1704SOL    HW2 5150   3.204   1.215   1.933
 1705SOL     OW 5151   2.159   0.035   2.033
 1705SOL    HW1 5152   2.208   0.119   2.012
 1705SOL    HW2 5153   2.221  -0.030   2.078
 1706SOL     OW 5154   2.797   0.236   2.342
 1706SOL    HW1 5155   2.749   0.277   2.264
 1706SOL    HW2 5156   2.896   0.234   2.323
 1707SOL     OW 5157   2.938   0.683   3.326
 1707SOL    HW1 5158   2.858   0.622   3.329
 1707SOL    HW2 5159   3.019   0.630   3.302
 1708SOL     OW 5160   3.089   1.570   2.655
 1708SOL    HW1 5161   3.110   1.644   2.590
 1708SOL    HW2 5162   3.157   1.570   2.728
 1709SOL     OW 5163   2.321   1.152   2.603
 1709SOL    HW1 5164   2.250   1.125   2.668
 1709SOL    HW2 5165   2.295   1.124   2.510
 1710SOL     OW 5166   3.133   1.797   2.453
 1710SOL    HW1 5167   3.177   1.861   2.389
 1710SOL    HW2 5168   3.083   1.849   2.523
 1711SOL     OW 5169   2.894   0.549   1.878
 1711SOL    HW1 5170   2.853   0.631   1.839
 1711SOL    HW2 5171   2.958   0.575   1.951
 1712SOL     OW 5172   1.940   0.556   3.248
 1712SOL    HW1 5173   2.032   0.555   3.207
 1712SOL    HW2 5174   1.934   0.630   3.315
 1713SOL     OW 5175   2.423   0.222   3.009
 1713SOL    HW1 5176   2.461   0.138   3.046
 1713SOL    HW2 5177   2.335   0.241   3.053
 1714SOL     OW 5178   2.728   0.454   2.504
 1714SOL    HW1 5179   2.696   0.526   2.442
 1714SOL    HW2 5180   2.752   0.373   2.451
 1715SOL     OW 5181   2.879   0.039   2.615
 1715SOL    HW1 5182   2.807   0.044   2.546
 1715SOL    HW2 5183   2.855  -0.030   2.684
 1716SOL     OW 5184   3.291   1.173   2.729
 1716SOL    HW1 5185   3.236   1.089   2.722
 1716SOL    HW2 5186   3.317   1.202   2.637
 1717SOL     OW 5187   3.328   0.590   2.854
 1717SOL    HW1 5188   3.298   0.495   2.861
 1717SOL    HW2 5189   3.401   0.606   2.920
 1718SOL     OW 5190   3.719   0.833   2.239
 1718SOL    HW1 5191   3.761   0.769   2.303
 1718SOL    HW2 5192   3.681   0.782   2.161
 1719SOL     OW 5193   2.350   1.385   2.036
 1719SOL    HW1 5194   2.263   1.370   2.083
 1719SOL    HW2 5195   2.333   1.411   1.941
 1720SOL     OW 5196   3.526   1.280   2.519
 1720SOL    HW1 5197   3.625   1.288   2.533
 1720SOL    HW2 5198   3.481   1.364   2.550
 1721SOL     OW 5199   3.252   0.575   1.940
 1721SOL    HW1 5200   3.198   0.554   2.021
 1721SOL    HW2 5201   3.343   0.534   1.949
 1722SOL     OW 5202   2.389   0.256   2.190
 1722SOL    HW1 5203   2.416   0.197   2.115
 1722SOL    HW2 5204   2.389   0.351   2.159
 1723SOL     OW 5205   3.616   1.223   3.450
 1723SOL    HW1 5206   3.707   1.184   3.437
 1723SOL    HW2 5207   3.624   1.319   3.474
 1724SOL     OW 5208   2.926   1.347   3.202
 1724SOL    HW1 5209   2.846   1.324   3.257
 1724SOL    HW2 5210   3.009   1.321   3.251
 1725SOL     OW 5211   3.454   1.629   3.487
 1725SOL    HW1 5212   3.481   1.663   3.397
 1725SOL    HW2 5213   3.533   1.591   3.533
 1726SOL     OW 5214   2.973   1.195   2.962
 1726SOL    HW1 5215   2.933   1.239   3.043
 1726SOL    HW2 5216   2.932   1.232   2.879
 1727SOL     OW 5217   3.500   1.099   2.941
 1727SOL    HW1 5218   3.505   1.180   3.000
 1727SOL    HW2 5219   3.414   1.101   2.890
 1728SOL     OW 5220   2.777   0.089   3.264
 1728SOL    HW1 5221   2.802   0.069   3.169
 1728SOL    HW2 5222   2.849   0.145   3.306
 1729SOL     OW 5223   2.842   1.116   3.581
 1729SOL    HW1 5224   2.743   1.122   3.591
 1729SOL    HW2 5225   2.865   1.036   3.525
 1730SOL     OW 5226   2.567   1.050   2.230
 1730SOL    HW1 5227   2.553   1.057   2.329
 1730SOL    HW2 5228   2.651   0.999   2.212
 1731SOL     OW 5229   2.272   0.813   3.113
 1731SOL    HW1 5230   2.358   0.825   3.163
 1731SOL    HW2 5231   2.230   0.726   3.140
 1732SOL     OW 5232   3.136   0.386   3.124
 1732SOL    HW1 5233   3.157   0.460   3.188
 1732SOL    HW2 5234   3.047   0.403   3.081
 1733SOL     OW 5235   1.926   1.564   3.193
 1733SOL    HW1 5236   1.880   1.646   3.159
 1733SOL    HW2 5237   2.024   1.583   3.202
 1734SOL     OW 5238   2.229   1.100   2.363
 1734SOL    HW1 5239   2.222   1.183   2.307
 1734SOL    HW2 5240   2.233   1.020   2.303
 1735SOL     OW 5241   2.428   0.537   2.727
 1735SOL    HW1 5242   2.440   0.603   2.653
 1735SOL    HW2 5243   2.474   0.571   2.810
 1736SOL     OW 5244   3.114   1.348   2.250
 1736SOL    HW1 5245   3.164   1.425   2.290
 1736SOL    HW2 5246   3.019   1.350   2.282
 1737SOL     OW 5247   3.134   1.445   3.004
 1737SOL    HW1 5248   3.181   1.458   3.091
 1737SOL    HW2 5249   3.068   1.371   3.013
 1738SOL     OW 5250   3.444   0.639   2.334
 1738SOL    HW1 5251   3.413   0.700   2.407
 1738SOL    HW2 5252   3.494   0.691   2.265
 1739SOL     OW 5253   2.216   1.510   3.191
 1739SOL    HW1 5254   2.195   1.466   3.104
 1739SOL    HW2 5255   2.313   1.536   3.194
 1740SOL     OW 5256   2.264   0.751   3.460
 1740SOL    HW1 5257   2.332   0.806   3.413
 1740SOL    HW2 5258   2.304   0.663   3.487
 1741SOL     OW 5259   3.449   0.779   3.532
 1741SOL    HW1 5260   3.357   0.817   3.527
 1741SOL    HW2 5261   3.509   0.826   3.467
 1742SOL     OW 5262   2.875   0.105   3.632
 1742SOL    HW1 5263   2.881   0.190   3.580
 1742SOL    HW2 5264   2.907   0.029   3.575
 1743SOL     OW 5265   2.366   0.050   3.602
 1743SOL    HW1 5266   2.324  -0.007   3.532
 1743SOL    HW2 5267   2.300   0.119   3.634
 1744SOL     OW 5268   2.435   0.870   2.891
 1744SOL    HW1 5269   2.479   0.959   2.882
 1744SOL    HW2 5270   2.372   0.870   2.968
 1745SOL     OW 5271   3.222   0.862   2.907
 1745SOL    HW1 5272   3.147   0.862   2.841
 1745SOL    HW2 5273   3.259   0.770   2.916
 1746SOL     OW 5274   3.071   0.525   2.137
 1746SOL    HW1 5275   3.084   0.441   2.191
 1746SOL    HW2 5276   3.042   0.599   2.197
 1747SOL     OW 5277   2.169   0.213   3.093
 1747SOL    HW1 5278   2.146   0.250   3.183
 1747SOL    HW2 5279   2.139   0.118   3.087
 1748SOL     OW 5280   1.899   1.310   3.144
 1748SOL    HW1 5281   1.952   1.261   3.212
 1748SOL    HW2 5282   1.921   1.408   3.149
 1749SOL     OW 5283   2.594   0.634   2.926
 1749SOL    HW1 5284   2.653   0.608   2.850
 1749SOL    HW2 5285   2.566   0.730   2.915
 1750SOL     OW 5286   3.590   0.935   3.716
 1750SOL    HW1 5287   3.544   0.928   3.627
 1750SOL    HW2 5288   3.528   0.979   3.782
 1751SOL     OW 5289   2.169   0.063   2.480
 1751SOL    HW1 5290   2.158   0.157   2.513
 1751SOL    HW2 5291   2.164   0.000   2.557
 1752SOL     OW 5292   3.484   0.367   2.236
 1752SOL    HW1 5293   3.486   0.291   2.300
 1752SOL    HW2 5294   3.436   0.444   2.276
 1753SOL     OW 5295   2.885   0.766   2.828
 1753SOL    HW1 5296   2.900   0.787   2.924
 1753SOL    HW2 5297   2.855   0.671   2.819
 1754SOL     OW 5298   2.842   1.573   3.562
 1754SOL    HW1 5299   2.822   1.617   3.474
 1754SOL    HW2 5300   2.881   1.482   3.546
 1755SOL     OW 5301   3.721   1.518   3.467
 1755SOL    HW1 5302   3.735   1.545   3.372
 1755SOL    HW2 5303   3.804   1.540   3.520
 1756SOL     OW 5304   2.212   0.898   3.666
 1756SOL    HW1 5305   2.288   0.942   3.714
 1756SOL    HW2 5306   2.247   0.851   3.584
 1757SOL     OW 5307   3.402   0.274   1.987
 1757SOL    HW1 5308   3.341   0.199   2.010
 1757SOL    HW2 5309   3.424   0.326   2.070
 1758SOL     OW 5310   3.165   0.838   1.904
 1758SOL    HW1 5311   3.199   0.745   1.919
 1758SOL    HW2 5312   3.183   0.865   1.809
 1759SOL     OW 5313   2.930   1.333   2.711
 1759SOL    HW1 5314   2.937   1.249   2.656
 1759SOL    HW2 5315   2.992   1.402   2.675
 1760SOL     OW 5316   2.181   0.810   2.811
 1760SOL    HW1 5317   2.274   0.846   2.816
 1760SOL    HW2 5318   2.175   0.725   2.863
 1761SOL     OW 5319   2.201   0.509   2.868
 1761SOL    HW1 5320   2.149   0.426   2.851
 1761SOL    HW2 5321   2.278   0.514   2.804
 1762SOL     OW 5322   3.000   0.380   3.540
 1762SOL    HW1 5323   2.955   0.443   3.604
 1762SOL    HW2 5324   3.093   0.411   3.523
 1763SOL     OW 5325   3.022   0.207   3.339
 1763SOL    HW1 5326   3.022   0.271   3.416
 1763SOL    HW2 5327   3.050   0.255   3.256
 1764SOL     OW 5328   1.870   1.326   2.062
 1764SOL    HW1 5329   1.777   1.347   2.031
 1764SOL    HW2 5330   1.880   1.227   2.075
 1765SOL     OW 5331   1.950   1.801   2.789
 1765SOL    HW1 5332   1.908   1.715   2.762
 1765SOL    HW2 5333   2.044   1.804   2.755
 1766SOL     OW 5334   2.366   1.568   2.772
 1766SOL    HW1 5335   2.432   1.642   2.781
 1766SOL    HW2 5336   2.410   1.489   2.730
 1767SOL     OW 5337   2.864   0.796   3.100
 1767SOL    HW1 5338   2.905   0.764   3.186
 1767SOL    HW2 5339   2.768   0.769   3.097
 1768SOL     OW 5340   1.902   0.544   2.976
 1768SOL    HW1 5341   1.987   0.511   2.935
 1768SOL    HW2 5342   1.915   0.559   3.074
 1769SOL     OW 5343   2.051   0.520   3.584
 1769SOL    HW1 5344   2.110   0.480   3.514
 1769SOL    HW2 5345   1.993   0.591   3.543
 1770SOL     OW 5346   3.231   0.950   3.522
 1770SOL    HW1 5347   3.270   1.039   3.542
 1770SOL    HW2 5348   3.241   0.930   3.425
 1771SOL     OW 5349   2.677   0.572   2.187
 1771SOL    HW1 5350   2.684   0.483   2.141
 1771SOL    HW2 5351   2.583   0.606   2.179
 1772SOL     OW 5352   3.519   0.604   3.068
 1772SOL    HW1 5353   3.481   0.535   3.130
 1772SOL    HW2 5354   3.601   0.568   3.024
 1773SOL     OW 5355   2.114   1.564   3.606
 1773SOL    HW1 5356   2.084   1.621   3.682
 1773SOL    HW2 5357   2.107   1.467   3.632
 1774SOL     OW 5358   2.533   0.464   3.131
 1774SOL    HW1 5359   2.499   0.375   3.101
 1774SOL    HW2 5360   2.559   0.518   3.051
 1775SOL     OW 5361   2.792   1.678   3.327
 1775SOL    HW1 5362   2.768   1.660   3.232
 1775SOL    HW2 5363   2.822   1.772   3.337
 1776SOL     OW 5364   2.335   0.500   2.053
 1776SOL    HW1 5365   2.396   0.580   2.057
 1776SOL    HW2 5366   2.240   0.531   2.060
 1777SOL     OW 5367   2.021   1.137   3.328
 1777SOL    HW1 5368   2.043   1.076   3.404
 1777SOL    HW2 5369   2.031   1.088   3.242
 1778SOL     OW 5370   3.209   1.059   3.096
 1778SOL    HW1 5371   3.233   0.996   3.022
 1778SOL    HW2 5372   3.119   1.099   3.078
 1779SOL     OW 5373   3.164   0.855   2.171
 1779SOL    HW1 5374   3.078   0.824   2.213
 1779SOL    HW2 5375   3.160   0.841   2.072
 1780SOL     OW 5376   3.621   1.747   3.016
 1780SOL    HW1 5377   3.682   1.777   2.943
 1780SOL    HW2 5378   3.583   1.658   2.994
 1781SOL     OW 5379   3.114   1.731   2.990
 1781SOL    HW1 5380   3.198   1.736   2.936
 1781SOL    HW2 5381   3.091   1.635   3.008
 1782SOL     OW 5382   1.945   1.258   2.884
 1782SOL    HW1 5383   1.940   1.257   2.984
 1782SOL    HW2 5384   1.862   1.217   2.846
 1783SOL     OW 5385   2.550   1.662   3.578
 1783SOL    HW1 5386   2.494   1.743   3.587
 1783SOL    HW2 5387   2.602   1.666   3.492
 1784SOL     OW 5388   3.588   0.135   2.385
 1784SOL    HW1 5389   3.661   0.118   2.318
 1784SOL    HW2 5390   3.557   0.048   2.423
 1785SOL     OW 5391   3.250   1.573   2.339
 1785SOL    HW1 5392   3.317   1.585   2.265
 1785SOL    HW2 5393   3.210   1.662   2.362
 1786SOL     OW 5394   1.992   1.794   3.713
 1786SOL    HW1 5395   1.951   1.720   3.766
 1786SOL    HW2 5396   2.056   1.845   3.771
 1787SOL     OW 5397   3.142   0.927   2.534
 1787SOL    HW1 5398   3.202   0.846   2.536
 1787SOL    HW2 5399   3.182   0.996   2.474
 1788SOL     OW 5400   2.692   1.273   3.284
 1788SOL    HW1 5401   2.687   1.306   3.379
 1788SOL    HW2 5402   2.606   1.292   3.238
 1789SOL     OW 5403   2.534   1.616   2.016
 1789SOL    HW1 5404   2.543   1.626   1.917
 1789SOL    HW2 5405   2.494   1.527   2.037
 1790SOL     OW 5406   3.512   1.720   3.256
 1790SOL    HW1 5407   3.565   1.730   3.172
 1790SOL    HW2 5408   3.485   1.810   3.290
 1791SOL     OW 5409   3.703   0.175   2.825
 1791SOL    HW1 5410   3.742   0.090   2.789
 1791SOL    HW2 5411   3.605   0.177   2.806
 1792SOL     OW 5412   2.125   0.326   2.582
 1792SOL    HW1 5413   2.046   0.377   2.548
 1792SOL    HW2 5414   2.116   0.311   2.680
 1793SOL     OW 5415   3.056   1.612   1.893
 1793SOL    HW1 5416   3.062   1.519   1.930
 1793SOL    HW2 5417   2.997   1.612   1.813
 1794SOL     OW 5418   2.684   1.002   3.234
 1794SOL    HW1 5419   2.724   1.001   3.142
 1794SOL    HW2 5420   2.694   1.094   3.274
 1795SOL     OW 5421   2.778   0.910   2.153
 1795SOL    HW1 5422   2.841   0.948   2.085
 1795SOL    HW2 5423   2.818   0.827   2.192
 1796SOL     OW 5424   3.366   1.607   1.906
 1796SOL    HW1 5425   3.274   1.644   1.913
 1796SOL    HW2 5426   3.404   1.627   1.816
 1797SOL     OW 5427   2.234   1.288   3.352
 1797SOL    HW1 5428   2.221   1.381   3.318
 1797SOL    HW2 5429   2.150   1.236   3.339
 1798SOL     OW 5430   3.476   1.292   3.151
 1798SOL    HW1 5431   3.536   1.295   3.231
 1798SOL    HW2 5432   3.401   1.356   3.164
 1799SOL     OW 5433   2.901   1.098   2.558
 1799SOL    HW1 5434   2.831   1.051   2.612
 1799SOL    HW2 5435   2.960   1.030   2.515
 1800SOL     OW 5436   2.876   0.236   2.833
 1800SOL    HW1 5437   2.868   0.200   2.740
 1800SOL    HW2 5438   2.874   0.160   2.898
 1801SOL     OW 5439   2.452   1.487   2.353
 1801SOL    HW1 5440   2.494   1.429   2.283
 1801SOL    HW2 5441   2.408   1.566   2.309
 1802SOL     OW 5442   3.571   0.385   3.243
 1802SOL    HW1 5443   3.644   0.454   3.247
 1802SOL    HW2 5444   3.599   0.310   3.184
 1803SOL     OW 5445   2.117   1.348   2.152
 1803SOL    HW1 5446   2.021   1.349   2.125
 1803SOL    HW2 5447   2.129   1.401   2.236
 1804SOL     OW 5448   1.967   1.013   3.588
 1804SOL    HW1 5449   1.890   0.980   3.642
 1804SOL    HW2 5450   2.052   0.983   3.630
 1805SOL     OW 5451   2.534   0.203   3.351
 1805SOL    HW1 5452   2.624   0.187   3.311
 1805SOL    HW2 5453   2.542   0.208   3.450
 1806SOL     OW 5454   1.937   0.345   1.895
 1806SOL    HW1 5455   1.845   0.317   1.866
 1806SOL    HW2 5456   1.968   0.422   1.839
 1807SOL     OW 5457   3.302   0.856   3.260
 1807SOL    HW1 5458   3.245   0.908   3.197
 1807SOL    HW2 5459   3.398   0.868   3.236
 1808SOL     OW 5460   1.934   0.166   2.180
 1808SOL    HW1 5461   1.917   0.249   2.126
 1808SOL    HW2 5462   2.024   0.129   2.158
 1809SOL     OW 5463   3.045   1.335   1.981
 1809SOL    HW1 5464   2.946   1.324   1.983
 1809SOL    HW2 5465   3.079   1.350   2.074
 1810SOL     OW 5466   2.475   0.842   3.293
 1810SOL    HW1 5467   2.531   0.923   3.276
 1810SOL    HW2 5468   2.534   0.762   3.296
 1811SOL     OW 5469   3.355   1.767   2.821
 1811SOL    HW1 5470   3.388   1.831   2.752
 1811SOL    HW2 5471   3.421   1.761   2.896
 1812SOL     OW 5472   2.578   0.565   3.570
 1812SOL    HW1 5473   2.597   0.630   3.644
 1812SOL    HW2 5474   2.638   0.485   3.579
 1813SOL     OW 5475   3.312   1.220   3.495
 1813SOL    HW1 5476   3.303   1.210   3.594
 1813SOL    HW2 5477   3.408   1.213   3.469
 1814SOL     OW 5478   2.252   1.741   3.422
 1814SOL    HW1 5479   2.161   1.782   3.420
 1814SOL    HW2 5480   2.245   1.647   3.454
 1815SOL     OW 5481   3.536   0.883   3.116
 1815SOL    HW1 5482   3.509   0.794   3.079
 1815SOL    HW2 5483   3.537   0.951   3.043
 1816SOL     OW 5484   3.087   0.325   2.311
 1816SOL    HW1 5485   3.152   0.251   2.300
 1816SOL    HW2 5486   3.107   0.375   2.395
 1817SOL     OW 5487   2.456   0.745   2.514
 1817SOL    HW1 5488   2.506   0.830   2.495
 1817SOL    HW2 5489   2.368   0.747   2.466
 1818SOL     OW 5490   3.639   0.342   3.504
 1818SOL    HW1 5491   3.622   0.373   3.410
 1818SOL    HW2 5492   3.555   0.305   3.542
 1819SOL     OW 5493   3.592   0.934   3.379
 1819SOL    HW1 5494   3.630   1.025   3.394
 1819SOL    HW2 5495   3.584   0.917   3.280
 1820SOL     OW 5496   2.721   1.374   1.878
 1820SOL    HW1 5497   2.675   1.389   1.966
 1820SOL    HW2 5498   2.765   1.459   1.848
 1821SOL     OW 5499   2.523   1.790   2.815
 1821SOL    HW1 5500   2.477   1.878   2.802
 1821SOL    HW2 5501   2.622   1.802   2.808
 1822SOL     OW 5502   2.721   0.956   2.723
 1822SOL    HW1 5503   2.775   0.887   2.771
 1822SOL    HW2 5504   2.689   1.025   2.789
 1823SOL     OW 5505   2.945   0.984   1.949
 1823SOL    HW1 5506   2.922   1.037   1.867
 1823SOL    HW2 5507   3.026   0.928   1.930
 1824SOL     OW 5508   3.723   1.569   2.713
 1824SOL    HW1 5509   3.652   1.557   2.643
 1824SOL    HW2 5510   3.724   1.490   2.773
 1825SOL     OW 5511   2.083   1.314   3.706
 1825SOL    HW1 5512   2.018   1.241   3.685
 1825SOL    HW2 5513   2.087   1.328   3.804
 1826SOL     OW 5514   1.941   1.240   2.515
 1826SOL    HW1 5515   1.940   1.193   2.603
 1826SOL    HW2 5516   2.023   1.212   2.464
 1827SOL     OW 5517   2.534   1.391   3.486
 1827SOL    HW1 5518   2.456   1.341   3.524
 1827SOL    HW2 5519   2.531   1.486   3.517
 1828SOL     OW 5520   3.686   0.192   3.089
 1828SOL    HW1 5521   3.682   0.102   3.133
 1828SOL    HW2 5522   3.689   0.181   2.990
 1829SOL     OW 5523   2.290   0.424   2.382
 1829SOL    HW1 5524   2.320   0.352   2.320
 1829SOL    HW2 5525   2.251   0.384   2.465
 1830SOL     OW 5526   3.567   1.487   2.966
 1830SOL    HW1 5527   3.474   1.462   2.939
 1830SOL    HW2 5528   3.593   1.437   3.048
 1831SOL     OW 5529   2.179   0.547   3.142
 1831SOL    HW1 5530   2.217   0.488   3.214
 1831SOL    HW2 5531   2.219   0.521   3.054
 1832SOL     OW 5532   2.674   1.586   2.549
 1832SOL    HW1 5533   2.706   1.596   2.455
 1832SOL    HW2 5534   2.595   1.524   2.551
 1833SOL     OW 5535   3.286   0.214   2.974
 1833SOL    HW1 5536   3.338   0.149   3.029
 1833SOL    HW2 5537   3.237   0.277   3.035
 1834SOL     OW 5538   2.863   0.034   3.016
 1834SOL    HW1 5539   2.800  -0.038   2.985
 1834SOL    HW2 5540   2.956  -0.002   3.016
 1835SOL     OW 5541   2.632   1.330   2.163
 1835SOL    HW1 5542   2.586   1.243   2.180
 1835SOL    HW2 5543   2.723   1.327   2.204
 1836SOL     OW 5544   2.480   1.567   3.146
 1836SOL    HW1 5545   2.475   1.649   3.203
 1836SOL    HW2 5546   2.569   1.564   3.101
 1837SOL     OW 5547   3.214   0.052   2.030
 1837SOL    HW1 5548   3.249   0.011   1.946
 1837SOL    HW2 5549   3.124   0.014   2.050
 1838SOL     OW 5550   3.162   0.453   2.553
 1838SOL    HW1 5551   3.103   0.533   2.557
 1838SOL    HW2 5552   3.177   0.418   2.646
 1839SOL     OW 5553   3.455   0.221   2.744
 1839SOL    HW1 5554   3.371   0.220   2.798
 1839SOL    HW2 5555   3.457   0.304   2.688
 1840SOL     OW 5556   1.901   1.077   2.162
 1840SOL    HW1 5557   2.000   1.066   2.153
 1840SOL    HW2 5558   1.861   0.991   2.194
 1841SOL     OW 5559   2.737   1.646   2.199
 1841SOL    HW1 5560   2.660   1.611   2.145
 1841SOL    HW2 5561   2.705   1.717   2.261
 1842SOL     OW 5562   2.092   0.628   3.837
 1842SOL    HW1 5563   1.999   0.626   3.874
 1842SOL    HW2 5564   2.093   0.589   3.745
 1843SOL     OW 5565   2.087   0.275   4.720
 1843SOL    HW1 5566   2.122   0.258   4.812
 1843SOL    HW2 5567   1.999   0.230   4.708
 1844SOL     OW 5568   1.881   0.368   4.371
 1844SOL    HW1 5569   1.799   0.411   4.410
 1844SOL    HW2 5570   1.853   0.295   4.308
 1845SOL     OW 5571   3.417   1.511   4.427
 1845SOL    HW1 5572   3.360   1.495   4.508
 1845SOL    HW2 5573   3.358   1.521   4.347
 1846SOL     OW 5574   2.997   0.703   4.441
 1846SOL    HW1 5575   3.054   0.781   4.416
 1846SOL    HW2 5576   2.937   0.729   4.517
 1847SOL     OW 5577   3.617   0.607   3.955
 1847SOL    HW1 5578   3.605   0.594   3.856
 1847SOL    HW2 5579   3.587   0.526   4.004
 1848SOL     OW 5580   2.630   1.144   4.747
 1848SOL    HW1 5581   2.552   1.161   4.807
 1848SOL    HW2 5582   2.664   1.231   4.711
 1849SOL     OW 5583   2.547   1.012   4.389
 1849SOL    HW1 5584   2.616   0.996   4.459
 1849SOL    HW2 5585   2.474   1.069   4.427
 1850SOL     OW 5586   2.197   1.435   4.785
 1850SOL    HW1 5587   2.119   1.404   4.732
 1850SOL    HW2 5588   2.255   1.493   4.728
 1851SOL     OW 5589   3.465   0.447   4.461
 1851SOL    HW1 5590   3.391   0.493   4.411
 1851SOL    HW2 5591   3.516   0.515   4.514
 1852SOL     OW 5592   2.093   1.713   4.207
 1852SOL    HW1 5593   2.127   1.790   4.261
 1852SOL    HW2 5594   2.137   1.713   4.117
 1853SOL     OW 5595   2.092   1.434   4.262
 1853SOL    HW1 5596   2.066   1.530   4.262
 1853SOL    HW2 5597   2.021   1.380   4.307
 1854SOL     OW 5598   2.102   1.091   4.610
 1854SOL    HW1 5599   2.116   1.007   4.662
 1854SOL    HW2 5600   2.047   1.155   4.665
 1855SOL     OW 5601   2.468   0.964   3.847
 1855SOL    HW1 5602   2.475   1.048   3.793
 1855SOL    HW2 5603   2.514   0.977   3.935
 1856SOL     OW 5604   1.984   0.643   4.287
 1856SOL    HW1 5605   1.939   0.555   4.304
 1856SOL    HW2 5606   1.983   0.697   4.371
 1857SOL     OW 5607   3.704   1.767   4.083
 1857SOL    HW1 5608   3.758   1.738   4.163
 1857SOL    HW2 5609   3.734   1.857   4.054
 1858SOL     OW 5610   1.889   1.596   3.841
 1858SOL    HW1 5611   1.870   1.500   3.862
 1858SOL    HW2 5612   1.856   1.654   3.916
 1859SOL     OW 5613   3.551   0.922   4.336
 1859SOL    HW1 5614   3.646   0.893   4.344
 1859SOL    HW2 5615   3.543   0.987   4.261
 1860SOL     OW 5616   3.503   1.108   4.156
 1860SOL    HW1 5617   3.589   1.110   4.104
 1860SOL    HW2 5618   3.517   1.155   4.244
 1861SOL     OW 5619   2.475   1.365   4.450
 1861SOL    HW1 5620   2.426   1.278   4.459
 1861SOL    HW2 5621   2.452   1.408   4.363
 1862SOL     OW 5622   2.671   0.004   4.226
 1862SOL    HW1 5623   2.711   0.095   4.217
 1862SOL    HW2 5624   2.571   0.012   4.232
 1863SOL     OW 5625   3.387   0.999   3.914
 1863SOL    HW1 5626   3.324   0.923   3.927
 1863SOL    HW2 5627   3.435   1.017   4.000
 1864SOL     OW 5628   3.328   1.417   4.677
 1864SOL    HW1 5629   3.269   1.423   4.757
 1864SOL    HW2 5630   3.313   1.329   4.631
 1865SOL     OW 5631   3.529   1.714   4.296
 1865SOL    HW1 5632   3.488   1.691   4.208
 1865SOL    HW2 5633   3.511   1.640   4.361
 1866SOL     OW 5634   2.460   0.729   3.994
 1866SOL    HW1 5635   2.484   0.798   3.926
 1866SOL    HW2 5636   2.382   0.762   4.048
 1867SOL     OW 5637   3.143   0.345   4.668
 1867SOL    HW1 5638   3.057   0.295   4.655
 1867SOL    HW2 5639   3.205   0.291   4.724
 1868SOL     OW 5640   3.438   1.662   4.031
 1868SOL    HW1 5641   3.527   1.708   4.034
 1868SOL    HW2 5642   3.417   1.638   3.936
 1869SOL     OW 5643   2.903   0.701   4.153
 1869SOL    HW1 5644   2.929   0.697   4.249
 1869SOL    HW2 5645   2.818   0.650   4.139
 1870SOL     OW 5646   1.938   0.811   4.513
 1870SOL    HW1 5647   2.037   0.799   4.522
 1870SOL    HW2 5648   1.914   0.906   4.534
 1871SOL     OW 5649   2.727   0.348   3.919
 1871SOL    HW1 5650   2.786   0.411   3.870
 1871SOL    HW2 5651   2.746   0.254   3.890
 1872SOL     OW 5652   3.224   1.144   4.269
 1872SOL    HW1 5653   3.307   1.115   4.221
 1872SOL    HW2 5654   3.175   1.211   4.213
 1873SOL     OW 5655   2.412   0.196   4.609
 1873SOL    HW1 5656   2.407   0.191   4.709
 1873SOL    HW2 5657   2.414   0.292   4.580
 1874SOL     OW 5658   2.870   1.456   4.201
 1874SOL    HW1 5659   2.824   1.528   4.149
 1874SOL    HW2 5660   2.866   1.476   4.299
 1875SOL     OW 5661   2.213   1.801   4.577
 1875SOL    HW1 5662   2.263   1.715   4.583
 1875SOL    HW2 5663   2.278   1.878   4.574
 1876SOL     OW 5664   3.657   1.066   4.597
 1876SOL    HW1 5665   3.595   1.051   4.521
 1876SOL    HW2 5666   3.605   1.077   4.682
 1877SOL     OW 5667   2.183   0.943   3.966
 1877SOL    HW1 5668   2.265   0.982   3.924
 1877SOL    HW2 5669   2.156   0.861   3.917
 1878SOL     OW 5670   3.320   0.735   4.452
 1878SOL    HW1 5671   3.315   0.670   4.527
 1878SOL    HW2 5672   3.400   0.794   4.465
 1879SOL     OW 5673   2.973   1.776   3.961
 1879SOL    HW1 5674   2.913   1.714   4.011
 1879SOL    HW2 5675   3.004   1.732   3.876
 1880SOL     OW 5676   3.494   1.377   3.805
 1880SOL    HW1 5677   3.462   1.471   3.795
 1880SOL    HW2 5678   3.418   1.314   3.793
 1881SOL     OW 5679   2.326   1.743   4.047
 1881SOL    HW1 5680   2.359   1.782   4.133
 1881SOL    HW2 5681   2.402   1.736   3.982
 1882SOL     OW 5682   3.262   0.107   4.150
 1882SOL    HW1 5683   3.238   0.070   4.060
 1882SOL    HW2 5684   3.361   0.123   4.154
 1883SOL     OW 5685   2.111   1.785   4.965
 1883SOL    HW1 5686   2.168   1.720   5.015
 1883SOL    HW2 5687   2.095   1.752   4.872
 1884SOL     OW 5688   2.802   1.698   4.628
 1884SOL    HW1 5689   2.882   1.641   4.649
 1884SOL    HW2 5690   2.753   1.658   4.551
 1885SOL     OW 5691   2.244   0.700   4.204
 1885SOL    HW1 5692   2.289   0.610   4.201
 1885SOL    HW2 5693   2.150   0.689   4.237
 1886SOL     OW 5694   2.476   0.122   3.841
 1886SOL    HW1 5695   2.574   0.100   3.848
 1886SOL    HW2 5696   2.445   0.105   3.748
 1887SOL     OW 5697   2.665   1.402   4.648
 1887SOL    HW1 5698   2.755   1.416   4.606
 1887SOL    HW2 5699   2.594   1.404   4.577
 1888SOL     OW 5700   2.784   0.503   4.623
 1888SOL    HW1 5701   2.759   0.494   4.527
 1888SOL    HW2 5702   2.832   0.421   4.654
 1889SOL     OW 5703   2.401   0.064   4.236
 1889SOL    HW1 5704   2.320   0.065   4.294
 1889SOL    HW2 5705   2.404   0.147   4.181
 1890SOL     OW 5706   3.296   1.188   3.765
 1890SOL    HW1 5707   3.328   1.112   3.822
 1890SOL    HW2 5708   3.204   1.215   3.795
 1891SOL     OW 5709   2.159   0.035   3.895
 1891SOL    HW1 5710   2.208   0.119   3.874
 1891SOL    HW2 5711   2.221  -0.030   3.940
 1892SOL     OW 5712   2.797   0.236   4.204
 1892SOL    HW1 5713   2.749   0.277   4.126
 1892SOL    HW2 5714   2.896   0.234   4.185
 1893SOL     OW 5715   3.089   1.570   4.517
 1893SOL    HW1 5716   3.110   1.644   4.452
 1893SOL    HW2 5717   3.157   1.570   4.590
 1894SOL     OW 5718   2.321   1.152   4.465
 1894SOL    HW1 5719   2.250   1.125   4.530
 1894SOL    HW2 5720   2.295   1.124   4.372
 1895SOL     OW 5721   3.133   1.797   4.315
 1895SOL    HW1 5722   3.177   1.861   4.251
 1895SOL    HW2 5723   3.083   1.849   4.385
 1896SOL     OW 5724   2.894   0.549   3.740
 1896SOL    HW1 5725   2.853   0.631   3.701
 1896SOL    HW2 5726   2.958   0.575   3.813
 1897SOL     OW 5727   2.728   0.454   4.366
 1897SOL    HW1 5728   2.696   0.526   4.304
 1897SOL    HW2 5729   2.752   0.373   4.313
 1898SOL     OW 5730   2.879   0.039   4.477
 1898SOL    HW1 5731   2.807   0.044   4.408
 1898SOL    HW2 5732   2.855  -0.030   4.546
 1899SOL     OW 5733   3.291   1.173   4.591
 1899SOL    HW1 5734   3.236   1.089   4.584
 1899SOL    HW2 5735   3.317   1.202   4.499
 1900SOL     OW 5736   3.328   0.590   4.716
 1900SOL    HW1 5737   3.298   0.495   4.723
 1900SOL    HW2 5738   3.401   0.606   4.782
 1901SOL     OW 5739   3.719   0.833   4.101
 1901SOL    HW1 5740   3.761   0.769   4.165
 1901SOL    HW2 5741   3.681   0.782   4.023
 1902SOL     OW 5742   2.350   1.385   3.898
 1902SOL    HW1 5743   2.263   1.370   3.945
 1902SOL    HW2 5744   2.333   1.411   3.803
 1903SOL     OW 5745   3.526   1.280   4.381
 1903SOL    HW1 5746   3.625   1.288   4.395
 1903SOL    HW2 5747   3.481   1.364   4.412
 1904SOL     OW 5748   3.252   0.575   3.802
 1904SOL    HW1 5749   3.198   0.554   3.883
 1904SOL    HW2 5750   3.343   0.534   3.811
 1905SOL     OW 5751   2.389   0.256   4.052
 1905SOL    HW1 5752   2.416   0.197   3.977
 1905SOL    HW2 5753   2.389   0.351   4.021
 1906SOL     OW 5754   3.500   1.099   4.803
 1906SOL    HW1 5755   3.505   1.180   4.862
 1906SOL    HW2 5756   3.414   1.101   4.752
 1907SOL     OW 5757   2.567   1.050   4.092
 1907SOL    HW1 5758   2.553   1.057   4.191
 1907SOL    HW2 5759   2.651   0.999   4.074
 1908SOL     OW 5760   2.229   1.100   4.225
 1908SOL    HW1 5761   2.222   1.183   4.169
 1908SOL    HW2 5762   2.233   1.020   4.165
 1909SOL     OW 5763   2.428   0.537   4.589
 1909SOL    HW1 5764   2.440   0.603   4.515
 1909SOL    HW2 5765   2.474   0.571   4.672
 1910SOL     OW 5766   3.114   1.348   4.112
 1910SOL    HW1 5767   3.164   1.425   4.152
 1910SOL    HW2 5768   3.019   1.350   4.144
 1911SOL     OW 5769   3.444   0.639   4.196
 1911SOL    HW1 5770   3.413   0.700   4.269
 1911SOL    HW2 5771   3.494   0.691   4.127
 1912SOL     OW 5772   2.435   0.870   4.753
 1912SOL    HW1 5773   2.479   0.959   4.744
 1912SOL    HW2 5774   2.372   0.870   4.830
 1913SOL     OW 5775   3.071   0.525   3.999
 1913SOL    HW1 5776   3.084   0.441   4.053
 1913SOL    HW2 5777   3.042   0.599   4.059
 1914SOL     OW 5778   2.594   0.634   4.788
 1914SOL    HW1 5779   2.653   0.608   4.712
 1914SOL    HW2 5780   2.566   0.730   4.777
 1915SOL     OW 5781   2.169   0.063   4.342
 1915SOL    HW1 5782   2.158   0.157   4.375
 1915SOL    HW2 5783   2.164   0.000   4.419
 1916SOL     OW 5784   3.484   0.367   4.098
 1916SOL    HW1 5785   3.486   0.291   4.162
 1916SOL    HW2 5786   3.436   0.444   4.138
 1917SOL     OW 5787   3.402   0.274   3.849
 1917SOL    HW1 5788   3.341   0.199   3.872
 1917SOL    HW2 5789   3.424   0.326   3.932
 1918SOL     OW 5790   3.165   0.838   3.766
 1918SOL    HW1 5791   3.199   0.745   3.781
 1918SOL    HW2 5792   3.183   0.865   3.671
 1919SOL     OW 5793   2.930   1.333   4.573
 1919SOL    HW1 5794   2.937   1.249   4.518
 1919SOL    HW2 5795   2.992   1.402   4.537
 1920SOL     OW 5796   2.181   0.810   4.673
 1920SOL    HW1 5797   2.274   0.846   4.678
 1920SOL    HW2 5798   2.175   0.725   4.725
 1921SOL     OW 5799   2.201   0.509   4.730
 1921SOL    HW1 5800   2.149   0.426   4.713
 1921SOL    HW2 5801   2.278   0.514   4.666
 1922SOL     OW 5802   1.870   1.326   3.924
 1922SOL    HW1 5803   1.777   1.347   3.893
 1922SOL    HW2 5804   1.880   1.227   3.937
 1923SOL     OW 5805   1.950   1.801   4.651
 1923SOL    HW1 5806   1.908   1.715   4.624
 1923SOL    HW2 5807   2.044   1.804   4.617
 1924SOL     OW 5808   2.366   1.568   4.634
 1924SOL    HW1 5809   2.432   1.642   4.643
 1924SOL    HW2 5810   2.410   1.489   4.592
 1925SOL     OW 5811   2.864   0.796   4.962
 1925SOL    HW1 5812   2.905   0.764   5.048
 1925SOL    HW2 5813   2.768   0.769   4.959
 1926SOL     OW 5814   2.677   0.572   4.049
 1926SOL    HW1 5815   2.684   0.483   4.003
 1926SOL    HW2 5816   2.583   0.606   4.041
 1927SOL     OW 5817   2.533   0.464   4.993
 1927SOL    HW1 5818   2.499   0.375   4.963
 1927SOL    HW2 5819   2.559   0.518   4.913
 1928SOL     OW 5820   2.335   0.500   3.915
 1928SOL    HW1 5821   2.396   0.580   3.919
 1928SOL    HW2 5822   2.240   0.531   3.922
 1929SOL     OW 5823   3.164   0.855   4.033
 1929SOL    HW1 5824   3.078   0.824   4.075
 1929SOL    HW2 5825   3.160   0.841   3.934
 1930SOL     OW 5826   3.621   1.747   4.878
 1930SOL    HW1 5827   3.682   1.777   4.805
 1930SOL    HW2 5828   3.583   1.658   4.856
 1931SOL     OW 5829   1.945   1.258   4.746
 1931SOL    HW1 5830   1.940   1.257   4.846
 1931SOL    HW2 5831   1.862   1.217   4.708
 1932SOL     OW 5832   3.588   0.135   4.247
 1932SOL    HW1 5833   3.661   0.118   4.180
 1932SOL    HW2 5834   3.557   0.048   4.285
 1933SOL     OW 5835   3.250   1.573   4.201
 1933SOL    HW1 5836   3.317   1.585   4.127
 1933SOL    HW2 5837   3.210   1.662   4.224
 1934SOL     OW 5838   3.142   0.927   4.396
 1934SOL    HW1 5839   3.202   0.846   4.398
 1934SOL    HW2 5840   3.182   0.996   4.336
 1935SOL     OW 5841   2.534   1.616   3.878
 1935SOL    HW1 5842   2.543   1.626   3.779
 1935SOL    HW2 5843   2.494   1.527   3.899
 1936SOL     OW 5844   3.703   0.175   4.687
 1936SOL    HW1 5845   3.742   0.090   4.651
 1936SOL    HW2 5846   3.605   0.177   4.668
 1937SOL     OW 5847   2.125   0.326   4.444
 1937SOL    HW1 5848   2.046   0.377   4.410
 1937SOL    HW2 5849   2.116   0.311   4.542
 1938SOL     OW 5850   3.056   1.612   3.755
 1938SOL    HW1 5851   3.062   1.519   3.792
 1938SOL    HW2 5852   2.997   1.612   3.675
 1939SOL     OW 5853   2.778   0.910   4.015
 1939SOL    HW1 5854   2.841   0.948   3.947
 1939SOL    HW2 5855   2.818   0.827   4.054
 1940SOL     OW 5856   3.366   1.607   3.768
 1940SOL    HW1 5857   3.274   1.644   3.775
 1940SOL    HW2 5858   3.404   1.627   3.678
 1941SOL     OW 5859   2.901   1.098   4.420
 1941SOL    HW1 5860   2.831   1.051   4.474
 1941SOL    HW2 5861   2.960   1.030   4.377
 1942SOL     OW 5862   2.452   1.487   4.215
 1942SOL    HW1 5863   2.494   1.429   4.145
 1942SOL    HW2 5864   2.408   1.566   4.171
 1943SOL     OW 5865   2.117   1.348   4.014
 1943SOL    HW1 5866   2.021   1.349   3.987
 1943SOL    HW2 5867   2.129   1.401   4.098
 1944SOL     OW 5868   1.937   0.345   3.757
 1944SOL    HW1 5869   1.845   0.317   3.728
 1944SOL    HW2 5870   1.968   0.422   3.701
 1945SOL     OW 5871   1.934   0.166   4.042
 1945SOL    HW1 5872   1.917   0.249   3.988
 1945SOL    HW2 5873   2.024   0.129   4.020
 1946SOL     OW 5874   3.045   1.335   3.843
 1946SOL    HW1 5875   2.946   1.324   3.845
 1946SOL    HW2 5876   3.079   1.350   3.936
 1947SOL     OW 5877   3.536   0.883   4.978
 1947SOL    HW1 5878   3.509   0.794   4.941
 1947SOL    HW2 5879   3.537   0.951   4.905
 1948SOL     OW 5880   3.087   0.325   4.173
 1948SOL    HW1 5881   3.152   0.251   4.162
 1948SOL    HW2 5882   3.107   0.375   4.257
 1949SOL     OW 5883   2.456   0.745   4.376
 1949SOL    HW1 5884   2.506   0.830   4.357
 1949SOL    HW2 5885   2.368   0.747   4.328
 1950SOL     OW 5886   2.721   1.374   3.740
 1950SOL    HW1 5887   2.675   1.389   3.828
 1950SOL    HW2 5888   2.765   1.459   3.710
 1951SOL     OW 5889   2.523   1.790   4.677
 1951SOL    HW1 5890   2.477   1.878   4.664
 1951SOL    HW2 5891   2.622   1.802   4.670
 1952SOL     OW 5892   2.721   0.956   4.585
 1952SOL    HW1 5893   2.775   0.887   4.633
 1952SOL    HW2 5894   2.689   1.025   4.651
 1953SOL     OW 5895   2.945   0.984   3.811
 1953SOL    HW1 5896   2.922   1.037   3.729
 1953SOL    HW2 5897   3.026   0.928   3.792
 1954SOL     OW 5898   3.723   1.569   4.575
 1954SOL    HW1 5899   3.652   1.557   4.505
 1954SOL    HW2 5900   3.724   1.490   4.635
 1955SOL     OW 5901   1.941   1.240   4.377
 1955SOL    HW1 5902   1.940   1.193   4.465
 1955SOL    HW2 5903   2.023   1.212   4.326
 1956SOL     OW 5904   3.686   0.192   4.951
 1956SOL    HW1 5905   3.682   0.102   4.995
 1956SOL    HW2 5906   3.689   0.181   4.852
 1957SOL     OW 5907   2.290   0.424   4.244
 1957SOL    HW1 5908   2.320   0.352   4.182
 1957SOL    HW2 5909   2.251   0.384   4.327
 1958SOL     OW 5910   2.674   1.586   4.411
 1958SOL    HW1 5911   2.706   1.596   4.317
 1958SOL    HW2 5912   2.595   1.524   4.413
 1959SOL     OW 5913   2.632   1.330   4.025
 1959SOL    HW1 5914   2.586   1.243   4.042
 1959SOL    HW2 5915   2.723   1.327   4.066
 1960SOL     OW 5916   3.214   0.052   3.892
 1960SOL    HW1 5917   3.249   0.011   3.808
 1960SOL    HW2 5918   3.124   0.014   3.912
 1961SOL     OW 5919   3.162   0.453   4.415
 1961SOL    HW1 5920   3.103   0.533   4.419
 1961SOL    HW2 5921   3.177   0.418   4.508
 1962SOL     OW 5922   3.455   0.221   4.606
 1962SOL    HW1 5923   3.371   0.220   4.660
 1962SOL    HW2 5924   3.457   0.304   4.550
 1963SOL     OW 5925   1.901   1.077   4.024
 1963SOL    HW1 5926   2.000   1.066   4.015
 1963SOL    HW2 5927   1.861   0.991   4.056
 1964SOL     OW 5928   2.737   1.646   4.061
 1964SOL    HW1 5929   2.660   1.611   4.007
 1964SOL    HW2 5930   2.705   1.717   4.123
 1965SOL     OW 5931   2.092   2.490   0.113
 1965SOL    HW1 5932   1.999   2.488   0.150
 1965SOL    HW2 5933   2.093   2.451   0.021
 1966SOL     OW 5934   2.087   2.137   0.996
 1966SOL    HW1 5935   2.122   2.120   1.088
 1966SOL    HW2 5936   1.999   2.092   0.984
 1967SOL     OW 5937   1.881   2.230   0.647
 1967SOL    HW1 5938   1.799   2.273   0.686
 1967SOL    HW2 5939   1.853   2.157   0.584
 1968SOL     OW 5940   2.431   3.137   1.165
 1968SOL    HW1 5941   2.338   3.130   1.128
 1968SOL    HW2 5942   2.442   3.226   1.209
 1969SOL     OW 5943   3.417   3.373   0.703
 1969SOL    HW1 5944   3.360   3.357   0.784
 1969SOL    HW2 5945   3.358   3.383   0.623
 1970SOL     OW 5946   2.997   2.565   0.717
 1970SOL    HW1 5947   3.054   2.643   0.692
 1970SOL    HW2 5948   2.937   2.591   0.793
 1971SOL     OW 5949   3.617   2.469   0.231
 1971SOL    HW1 5950   3.605   2.456   0.132
 1971SOL    HW2 5951   3.587   2.388   0.280
 1972SOL     OW 5952   2.630   3.006   1.023
 1972SOL    HW1 5953   2.552   3.023   1.083
 1972SOL    HW2 5954   2.664   3.093   0.987
 1973SOL     OW 5955   2.712   2.660   1.823
 1973SOL    HW1 5956   2.708   2.736   1.888
 1973SOL    HW2 5957   2.734   2.696   1.732
 1974SOL     OW 5958   2.547   2.874   0.665
 1974SOL    HW1 5959   2.616   2.858   0.735
 1974SOL    HW2 5960   2.474   2.931   0.703
 1975SOL     OW 5961   2.548   3.023   1.803
 1975SOL    HW1 5962   2.608   3.102   1.817
 1975SOL    HW2 5963   2.462   3.054   1.762
 1976SOL     OW 5964   2.197   3.297   1.061
 1976SOL    HW1 5965   2.119   3.266   1.008
 1976SOL    HW2 5966   2.255   3.355   1.004
 1977SOL     OW 5967   3.322   3.367   1.339
 1977SOL    HW1 5968   3.346   3.461   1.365
 1977SOL    HW2 5969   3.306   3.313   1.421
 1978SOL     OW 5970   2.300   2.254   1.499
 1978SOL    HW1 5971   2.382   2.198   1.508
 1978SOL    HW2 5972   2.219   2.196   1.503
 1979SOL     OW 5973   3.465   2.309   0.737
 1979SOL    HW1 5974   3.391   2.355   0.687
 1979SOL    HW2 5975   3.516   2.377   0.790
 1980SOL     OW 5976   2.093   3.575   0.483
 1980SOL    HW1 5977   2.127   3.652   0.537
 1980SOL    HW2 5978   2.137   3.575   0.393
 1981SOL     OW 5979   2.989   3.203   1.690
 1981SOL    HW1 5980   3.036   3.203   1.778
 1981SOL    HW2 5981   2.941   3.116   1.679
 1982SOL     OW 5982   2.092   3.296   0.538
 1982SOL    HW1 5983   2.066   3.392   0.538
 1982SOL    HW2 5984   2.021   3.242   0.583
 1983SOL     OW 5985   2.102   2.953   0.886
 1983SOL    HW1 5986   2.116   2.869   0.938
 1983SOL    HW2 5987   2.047   3.017   0.941
 1984SOL     OW 5988   2.482   3.648   1.439
 1984SOL    HW1 5989   2.390   3.631   1.474
 1984SOL    HW2 5990   2.510   3.740   1.465
 1985SOL     OW 5991   2.468   2.826   0.123
 1985SOL    HW1 5992   2.475   2.910   0.069
 1985SOL    HW2 5993   2.514   2.839   0.211
 1986SOL     OW 5994   3.456   1.976   1.480
 1986SOL    HW1 5995   3.438   2.043   1.408
 1986SOL    HW2 5996   3.453   2.022   1.569
 1987SOL     OW 5997   1.984   2.505   0.563
 1987SOL    HW1 5998   1.939   2.417   0.580
 1987SOL    HW2 5999   1.983   2.559   0.647
 1988SOL     OW 6000   3.704   3.629   0.359
 1988SOL    HW1 6001   3.758   3.600   0.439
 1988SOL    HW2 6002   3.734   3.719   0.330
 1989SOL     OW 6003   1.889   3.458   0.117
 1989SOL    HW1 6004   1.870   3.362   0.138
 1989SOL    HW2 6005   1.856   3.516   0.192
 1990SOL     OW 6006   3.551   2.784   0.612
 1990SOL    HW1 6007   3.646   2.755   0.620
 1990SOL    HW2 6008   3.543   2.849   0.537
 1991SOL     OW 6009   3.503   2.970   0.432
 1991SOL    HW1 6010   3.589   2.972   0.380
 1991SOL    HW2 6011   3.517   3.017   0.520
 1992SOL     OW 6012   1.975   2.599   1.597
 1992SOL    HW1 6013   2.063   2.586   1.642
 1992SOL    HW2 6014   1.962   2.696   1.575
 1993SOL     OW 6015   2.475   3.227   0.726
 1993SOL    HW1 6016   2.426   3.140   0.735
 1993SOL    HW2 6017   2.452   3.270   0.639
 1994SOL     OW 6018   3.155   3.090   1.423
 1994SOL    HW1 6019   3.192   3.017   1.365
 1994SOL    HW2 6020   3.207   3.095   1.508
 1995SOL     OW 6021   2.671   1.866   0.502
 1995SOL    HW1 6022   2.711   1.957   0.493
 1995SOL    HW2 6023   2.571   1.874   0.508
 1996SOL     OW 6024   2.059   2.838   1.264
 1996SOL    HW1 6025   2.148   2.793   1.250
 1996SOL    HW2 6026   1.986   2.773   1.245
 1997SOL     OW 6027   3.387   2.861   0.190
 1997SOL    HW1 6028   3.324   2.785   0.203
 1997SOL    HW2 6029   3.435   2.879   0.276
 1998SOL     OW 6030   3.049   3.654   1.616
 1998SOL    HW1 6031   3.073   3.714   1.540
 1998SOL    HW2 6032   3.056   3.559   1.586
 1999SOL     OW 6033   2.179   2.113   1.801
 1999SOL    HW1 6034   2.250   2.184   1.807
 1999SOL    HW2 6035   2.091   2.152   1.829
 2000SOL     OW 6036   3.328   3.279   0.953
 2000SOL    HW1 6037   3.269   3.285   1.033
 2000SOL    HW2 6038   3.313   3.191   0.907
 2001SOL     OW 6039   3.529   3.576   0.572
 2001SOL    HW1 6040   3.488   3.553   0.484
 2001SOL    HW2 6041   3.511   3.502   0.637
 2002SOL     OW 6042   2.460   2.591   0.270
 2002SOL    HW1 6043   2.484   2.660   0.202
 2002SOL    HW2 6044   2.382   2.624   0.324
 2003SOL     OW 6045   3.143   2.207   0.944
 2003SOL    HW1 6046   3.057   2.157   0.931
 2003SOL    HW2 6047   3.205   2.153   1.000
 2004SOL     OW 6048   3.438   3.524   0.307
 2004SOL    HW1 6049   3.527   3.570   0.310
 2004SOL    HW2 6050   3.417   3.500   0.212
 2005SOL     OW 6051   2.669   2.467   1.465
 2005SOL    HW1 6052   2.622   2.464   1.554
 2005SOL    HW2 6053   2.618   2.412   1.399
 2006SOL     OW 6054   3.256   2.331   1.674
 2006SOL    HW1 6055   3.236   2.374   1.762
 2006SOL    HW2 6056   3.334   2.269   1.683
 2007SOL     OW 6057   2.835   2.752   1.572
 2007SOL    HW1 6058   2.881   2.668   1.543
 2007SOL    HW2 6059   2.779   2.786   1.497
 2008SOL     OW 6060   2.853   2.272   1.242
 2008SOL    HW1 6061   2.776   2.306   1.296
 2008SOL    HW2 6062   2.819   2.221   1.163
 2009SOL     OW 6063   2.903   2.563   0.429
 2009SOL    HW1 6064   2.929   2.559   0.525
 2009SOL    HW2 6065   2.818   2.512   0.415
 2010SOL     OW 6066   1.938   2.673   0.789
 2010SOL    HW1 6067   2.037   2.661   0.798
 2010SOL    HW2 6068   1.914   2.768   0.810
 2011SOL     OW 6069   1.992   3.683   1.571
 2011SOL    HW1 6070   1.982   3.668   1.670
 2011SOL    HW2 6071   1.906   3.719   1.535
 2012SOL     OW 6072   2.727   2.210   0.195
 2012SOL    HW1 6073   2.786   2.273   0.146
 2012SOL    HW2 6074   2.746   2.116   0.166
 2013SOL     OW 6075   3.581   2.447   1.831
 2013SOL    HW1 6076   3.555   2.536   1.795
 2013SOL    HW2 6077   3.579   2.379   1.758
 2014SOL     OW 6078   3.224   3.006   0.545
 2014SOL    HW1 6079   3.307   2.977   0.497
 2014SOL    HW2 6080   3.175   3.073   0.489
 2015SOL     OW 6081   2.412   2.058   0.885
 2015SOL    HW1 6082   2.407   2.053   0.985
 2015SOL    HW2 6083   2.414   2.154   0.856
 2016SOL     OW 6084   2.870   3.318   0.477
 2016SOL    HW1 6085   2.824   3.390   0.425
 2016SOL    HW2 6086   2.866   3.338   0.575
 2017SOL     OW 6087   2.213   3.663   0.853
 2017SOL    HW1 6088   2.263   3.577   0.859
 2017SOL    HW2 6089   2.278   3.740   0.850
 2018SOL     OW 6090   3.657   2.928   0.873
 2018SOL    HW1 6091   3.595   2.913   0.797
 2018SOL    HW2 6092   3.605   2.939   0.958
 2019SOL     OW 6093   3.089   3.412   1.506
 2019SOL    HW1 6094   3.095   3.335   1.570
 2019SOL    HW2 6095   3.037   3.386   1.426
 2020SOL     OW 6096   2.183   2.805   0.242
 2020SOL    HW1 6097   2.265   2.844   0.200
 2020SOL    HW2 6098   2.156   2.723   0.193
 2021SOL     OW 6099   3.320   2.597   0.728
 2021SOL    HW1 6100   3.315   2.532   0.803
 2021SOL    HW2 6101   3.400   2.656   0.741
 2022SOL     OW 6102   2.323   3.128   1.727
 2022SOL    HW1 6103   2.273   3.129   1.641
 2022SOL    HW2 6104   2.260   3.110   1.803
 2023SOL     OW 6105   2.973   3.638   0.237
 2023SOL    HW1 6106   2.913   3.576   0.287
 2023SOL    HW2 6107   3.004   3.594   0.152
 2024SOL     OW 6108   2.064   2.147   1.498
 2024SOL    HW1 6109   1.984   2.207   1.485
 2024SOL    HW2 6110   2.054   2.098   1.584
 2025SOL     OW 6111   3.494   3.239   0.081
 2025SOL    HW1 6112   3.462   3.333   0.071
 2025SOL    HW2 6113   3.418   3.176   0.069
 2026SOL     OW 6114   2.326   3.605   0.323
 2026SOL    HW1 6115   2.359   3.644   0.409
 2026SOL    HW2 6116   2.402   3.598   0.258
 2027SOL     OW 6117   3.262   1.969   0.426
 2027SOL    HW1 6118   3.238   1.932   0.336
 2027SOL    HW2 6119   3.361   1.985   0.430
 2028SOL     OW 6120   2.111   3.647   1.241
 2028SOL    HW1 6121   2.168   3.582   1.291
 2028SOL    HW2 6122   2.095   3.614   1.148
 2029SOL     OW 6123   2.802   3.560   0.904
 2029SOL    HW1 6124   2.882   3.503   0.925
 2029SOL    HW2 6125   2.753   3.520   0.827
 2030SOL     OW 6126   2.244   2.562   0.480
 2030SOL    HW1 6127   2.289   2.472   0.477
 2030SOL    HW2 6128   2.150   2.551   0.513
 2031SOL     OW 6129   3.409   2.084   1.729
 2031SOL    HW1 6130   3.404   2.121   1.821
 2031SOL    HW2 6131   3.337   2.015   1.717
 2032SOL     OW 6132   2.476   1.984   0.117
 2032SOL    HW1 6133   2.574   1.962   0.124
 2032SOL    HW2 6134   2.445   1.967   0.024
 2033SOL     OW 6135   2.643   2.126   1.749
 2033SOL    HW1 6136   2.710   2.065   1.792
 2033SOL    HW2 6137   2.570   2.145   1.814
 2034SOL     OW 6138   2.750   3.376   1.195
 2034SOL    HW1 6139   2.727   3.351   1.101
 2034SOL    HW2 6140   2.811   3.307   1.234
 2035SOL     OW 6141   3.213   2.452   1.433
 2035SOL    HW1 6142   3.241   2.409   1.518
 2035SOL    HW2 6143   3.238   2.548   1.434
 2036SOL     OW 6144   2.665   3.264   0.924
 2036SOL    HW1 6145   2.755   3.278   0.882
 2036SOL    HW2 6146   2.594   3.266   0.853
 2037SOL     OW 6147   2.784   2.365   0.899
 2037SOL    HW1 6148   2.759   2.356   0.803
 2037SOL    HW2 6149   2.832   2.283   0.930
 2038SOL     OW 6150   2.401   1.926   0.512
 2038SOL    HW1 6151   2.320   1.927   0.570
 2038SOL    HW2 6152   2.404   2.009   0.457
 2039SOL     OW 6153   3.296   3.050   0.041
 2039SOL    HW1 6154   3.328   2.974   0.098
 2039SOL    HW2 6155   3.204   3.077   0.071
 2040SOL     OW 6156   2.797   2.098   0.480
 2040SOL    HW1 6157   2.749   2.139   0.402
 2040SOL    HW2 6158   2.896   2.096   0.461
 2041SOL     OW 6159   2.938   2.545   1.464
 2041SOL    HW1 6160   2.858   2.484   1.467
 2041SOL    HW2 6161   3.019   2.492   1.440
 2042SOL     OW 6162   3.089   3.432   0.793
 2042SOL    HW1 6163   3.110   3.506   0.728
 2042SOL    HW2 6164   3.157   3.432   0.866
 2043SOL     OW 6165   2.321   3.014   0.741
 2043SOL    HW1 6166   2.250   2.987   0.806
 2043SOL    HW2 6167   2.295   2.986   0.648
 2044SOL     OW 6168   3.133   3.659   0.591
 2044SOL    HW1 6169   3.177   3.723   0.527
 2044SOL    HW2 6170   3.083   3.711   0.661
 2045SOL     OW 6171   2.894   2.411   0.016
 2045SOL    HW1 6172   2.853   2.493  -0.023
 2045SOL    HW2 6173   2.958   2.437   0.089
 2046SOL     OW 6174   1.940   2.418   1.386
 2046SOL    HW1 6175   2.032   2.417   1.345
 2046SOL    HW2 6176   1.934   2.492   1.453
 2047SOL     OW 6177   2.423   2.084   1.147
 2047SOL    HW1 6178   2.461   2.000   1.184
 2047SOL    HW2 6179   2.335   2.103   1.191
 2048SOL     OW 6180   2.728   2.316   0.642
 2048SOL    HW1 6181   2.696   2.388   0.580
 2048SOL    HW2 6182   2.752   2.235   0.589
 2049SOL     OW 6183   2.879   1.901   0.753
 2049SOL    HW1 6184   2.807   1.906   0.684
 2049SOL    HW2 6185   2.855   1.832   0.822
 2050SOL     OW 6186   3.291   3.035   0.867
 2050SOL    HW1 6187   3.236   2.951   0.860
 2050SOL    HW2 6188   3.317   3.064   0.775
 2051SOL     OW 6189   3.328   2.452   0.992
 2051SOL    HW1 6190   3.298   2.357   0.999
 2051SOL    HW2 6191   3.401   2.468   1.058
 2052SOL     OW 6192   3.719   2.695   0.377
 2052SOL    HW1 6193   3.761   2.631   0.441
 2052SOL    HW2 6194   3.681   2.644   0.299
 2053SOL     OW 6195   2.350   3.247   0.174
 2053SOL    HW1 6196   2.263   3.232   0.221
 2053SOL    HW2 6197   2.333   3.273   0.079
 2054SOL     OW 6198   3.526   3.142   0.657
 2054SOL    HW1 6199   3.625   3.150   0.671
 2054SOL    HW2 6200   3.481   3.226   0.688
 2055SOL     OW 6201   3.252   2.437   0.078
 2055SOL    HW1 6202   3.198   2.416   0.159
 2055SOL    HW2 6203   3.343   2.396   0.087
 2056SOL     OW 6204   2.389   2.118   0.328
 2056SOL    HW1 6205   2.416   2.059   0.253
 2056SOL    HW2 6206   2.389   2.213   0.297
 2057SOL     OW 6207   3.616   3.085   1.588
 2057SOL    HW1 6208   3.707   3.046   1.575
 2057SOL    HW2 6209   3.624   3.181   1.612
 2058SOL     OW 6210   2.926   3.209   1.340
 2058SOL    HW1 6211   2.846   3.186   1.395
 2058SOL    HW2 6212   3.009   3.183   1.389
 2059SOL     OW 6213   3.454   3.491   1.625
 2059SOL    HW1 6214   3.481   3.525   1.535
 2059SOL    HW2 6215   3.533   3.453   1.671
 2060SOL     OW 6216   2.973   3.057   1.100
 2060SOL    HW1 6217   2.933   3.101   1.181
 2060SOL    HW2 6218   2.932   3.094   1.017
 2061SOL     OW 6219   3.500   2.961   1.079
 2061SOL    HW1 6220   3.505   3.042   1.138
 2061SOL    HW2 6221   3.414   2.963   1.028
 2062SOL     OW 6222   2.777   1.951   1.402
 2062SOL    HW1 6223   2.802   1.931   1.307
 2062SOL    HW2 6224   2.849   2.007   1.444
 2063SOL     OW 6225   2.842   2.978   1.719
 2063SOL    HW1 6226   2.743   2.984   1.729
 2063SOL    HW2 6227   2.865   2.898   1.663
 2064SOL     OW 6228   2.567   2.912   0.368
 2064SOL    HW1 6229   2.553   2.919   0.467
 2064SOL    HW2 6230   2.651   2.861   0.350
 2065SOL     OW 6231   2.272   2.675   1.251
 2065SOL    HW1 6232   2.358   2.687   1.301
 2065SOL    HW2 6233   2.230   2.588   1.278
 2066SOL     OW 6234   3.136   2.248   1.262
 2066SOL    HW1 6235   3.157   2.322   1.326
 2066SOL    HW2 6236   3.047   2.265   1.219
 2067SOL     OW 6237   1.926   3.426   1.331
 2067SOL    HW1 6238   1.880   3.508   1.297
 2067SOL    HW2 6239   2.024   3.445   1.340
 2068SOL     OW 6240   2.229   2.962   0.501
 2068SOL    HW1 6241   2.222   3.045   0.445
 2068SOL    HW2 6242   2.233   2.882   0.441
 2069SOL     OW 6243   2.428   2.399   0.865
 2069SOL    HW1 6244   2.440   2.465   0.791
 2069SOL    HW2 6245   2.474   2.433   0.948
 2070SOL     OW 6246   3.114   3.210   0.388
 2070SOL    HW1 6247   3.164   3.287   0.428
 2070SOL    HW2 6248   3.019   3.212   0.420
 2071SOL     OW 6249   3.134   3.307   1.142
 2071SOL    HW1 6250   3.181   3.320   1.229
 2071SOL    HW2 6251   3.068   3.233   1.151
 2072SOL     OW 6252   3.444   2.501   0.472
 2072SOL    HW1 6253   3.413   2.562   0.545
 2072SOL    HW2 6254   3.494   2.553   0.403
 2073SOL     OW 6255   2.216   3.372   1.329
 2073SOL    HW1 6256   2.195   3.328   1.242
 2073SOL    HW2 6257   2.313   3.398   1.332
 2074SOL     OW 6258   2.264   2.613   1.598
 2074SOL    HW1 6259   2.332   2.668   1.551
 2074SOL    HW2 6260   2.304   2.525   1.625
 2075SOL     OW 6261   3.449   2.641   1.670
 2075SOL    HW1 6262   3.357   2.679   1.665
 2075SOL    HW2 6263   3.509   2.688   1.605
 2076SOL     OW 6264   2.875   1.967   1.770
 2076SOL    HW1 6265   2.881   2.052   1.718
 2076SOL    HW2 6266   2.907   1.891   1.713
 2077SOL     OW 6267   2.366   1.912   1.740
 2077SOL    HW1 6268   2.324   1.855   1.670
 2077SOL    HW2 6269   2.300   1.981   1.772
 2078SOL     OW 6270   2.435   2.732   1.029
 2078SOL    HW1 6271   2.479   2.821   1.020
 2078SOL    HW2 6272   2.372   2.732   1.106
 2079SOL     OW 6273   3.222   2.724   1.045
 2079SOL    HW1 6274   3.147   2.724   0.979
 2079SOL    HW2 6275   3.259   2.632   1.054
 2080SOL     OW 6276   3.071   2.387   0.275
 2080SOL    HW1 6277   3.084   2.303   0.329
 2080SOL    HW2 6278   3.042   2.461   0.335
 2081SOL     OW 6279   2.169   2.075   1.231
 2081SOL    HW1 6280   2.146   2.112   1.321
 2081SOL    HW2 6281   2.139   1.980   1.225
 2082SOL     OW 6282   1.899   3.172   1.282
 2082SOL    HW1 6283   1.952   3.123   1.350
 2082SOL    HW2 6284   1.921   3.270   1.287
 2083SOL     OW 6285   2.594   2.496   1.064
 2083SOL    HW1 6286   2.653   2.470   0.988
 2083SOL    HW2 6287   2.566   2.592   1.053
 2084SOL     OW 6288   3.590   2.797   1.854
 2084SOL    HW1 6289   3.544   2.790   1.765
 2084SOL    HW2 6290   3.528   2.841   1.920
 2085SOL     OW 6291   2.169   1.925   0.618
 2085SOL    HW1 6292   2.158   2.019   0.651
 2085SOL    HW2 6293   2.164   1.862   0.695
 2086SOL     OW 6294   3.484   2.229   0.374
 2086SOL    HW1 6295   3.486   2.153   0.438
 2086SOL    HW2 6296   3.436   2.306   0.414
 2087SOL     OW 6297   2.885   2.628   0.966
 2087SOL    HW1 6298   2.900   2.649   1.062
 2087SOL    HW2 6299   2.855   2.533   0.957
 2088SOL     OW 6300   2.842   3.435   1.700
 2088SOL    HW1 6301   2.822   3.479   1.612
 2088SOL    HW2 6302   2.881   3.344   1.684
 2089SOL     OW 6303   3.721   3.380   1.605
 2089SOL    HW1 6304   3.735   3.407   1.510
 2089SOL    HW2 6305   3.804   3.402   1.658
 2090SOL     OW 6306   2.212   2.760   1.804
 2090SOL    HW1 6307   2.288   2.804   1.852
 2090SOL    HW2 6308   2.247   2.713   1.722
 2091SOL     OW 6309   3.402   2.136   0.125
 2091SOL    HW1 6310   3.341   2.061   0.148
 2091SOL    HW2 6311   3.424   2.188   0.208
 2092SOL     OW 6312   3.165   2.700   0.042
 2092SOL    HW1 6313   3.199   2.607   0.057
 2092SOL    HW2 6314   3.183   2.727  -0.053
 2093SOL     OW 6315   2.930   3.195   0.849
 2093SOL    HW1 6316   2.937   3.111   0.794
 2093SOL    HW2 6317   2.992   3.264   0.813
 2094SOL     OW 6318   2.181   2.672   0.949
 2094SOL    HW1 6319   2.274   2.708   0.954
 2094SOL    HW2 6320   2.175   2.587   1.001
 2095SOL     OW 6321   2.201   2.371   1.006
 2095SOL    HW1 6322   2.149   2.288   0.989
 2095SOL    HW2 6323   2.278   2.376   0.942
 2096SOL     OW 6324   3.000   2.242   1.678
 2096SOL    HW1 6325   2.955   2.305   1.742
 2096SOL    HW2 6326   3.093   2.273   1.661
 2097SOL     OW 6327   3.022   2.069   1.477
 2097SOL    HW1 6328   3.022   2.133   1.554
 2097SOL    HW2 6329   3.050   2.117   1.394
 2098SOL     OW 6330   1.870   3.188   0.200
 2098SOL    HW1 6331   1.777   3.209   0.169
 2098SOL    HW2 6332   1.880   3.089   0.213
 2099SOL     OW 6333   1.950   3.663   0.927
 2099SOL    HW1 6334   1.908   3.577   0.900
 2099SOL    HW2 6335   2.044   3.666   0.893
 2100SOL     OW 6336   2.366   3.430   0.910
 2100SOL    HW1 6337   2.432   3.504   0.919
 2100SOL    HW2 6338   2.410   3.351   0.868
 2101SOL     OW 6339   2.864   2.658   1.238
 2101SOL    HW1 6340   2.905   2.626   1.324
 2101SOL    HW2 6341   2.768   2.631   1.235
 2102SOL     OW 6342   1.902   2.406   1.114
 2102SOL    HW1 6343   1.987   2.373   1.073
 2102SOL    HW2 6344   1.915   2.421   1.212
 2103SOL     OW 6345   2.051   2.382   1.722
 2103SOL    HW1 6346   2.110   2.342   1.652
 2103SOL    HW2 6347   1.993   2.453   1.681
 2104SOL     OW 6348   3.231   2.812   1.660
 2104SOL    HW1 6349   3.270   2.901   1.680
 2104SOL    HW2 6350   3.241   2.792   1.563
 2105SOL     OW 6351   2.677   2.434   0.325
 2105SOL    HW1 6352   2.684   2.345   0.279
 2105SOL    HW2 6353   2.583   2.468   0.317
 2106SOL     OW 6354   3.519   2.466   1.206
 2106SOL    HW1 6355   3.481   2.397   1.268
 2106SOL    HW2 6356   3.601   2.430   1.162
 2107SOL     OW 6357   2.114   3.426   1.744
 2107SOL    HW1 6358   2.084   3.483   1.820
 2107SOL    HW2 6359   2.107   3.329   1.770
 2108SOL     OW 6360   2.533   2.326   1.269
 2108SOL    HW1 6361   2.499   2.237   1.239
 2108SOL    HW2 6362   2.559   2.380   1.189
 2109SOL     OW 6363   2.792   3.540   1.465
 2109SOL    HW1 6364   2.768   3.522   1.370
 2109SOL    HW2 6365   2.822   3.634   1.475
 2110SOL     OW 6366   2.335   2.362   0.191
 2110SOL    HW1 6367   2.396   2.442   0.195
 2110SOL    HW2 6368   2.240   2.393   0.198
 2111SOL     OW 6369   2.021   2.999   1.466
 2111SOL    HW1 6370   2.043   2.938   1.542
 2111SOL    HW2 6371   2.031   2.950   1.380
 2112SOL     OW 6372   3.209   2.921   1.234
 2112SOL    HW1 6373   3.233   2.858   1.160
 2112SOL    HW2 6374   3.119   2.961   1.216
 2113SOL     OW 6375   3.164   2.717   0.309
 2113SOL    HW1 6376   3.078   2.686   0.351
 2113SOL    HW2 6377   3.160   2.703   0.210
 2114SOL     OW 6378   3.621   3.609   1.154
 2114SOL    HW1 6379   3.682   3.639   1.081
 2114SOL    HW2 6380   3.583   3.520   1.132
 2115SOL     OW 6381   3.114   3.593   1.128
 2115SOL    HW1 6382   3.198   3.598   1.074
 2115SOL    HW2 6383   3.091   3.497   1.146
 2116SOL     OW 6384   1.945   3.120   1.022
 2116SOL    HW1 6385   1.940   3.119   1.122
 2116SOL    HW2 6386   1.862   3.079   0.984
 2117SOL     OW 6387   2.550   3.524   1.716
 2117SOL    HW1 6388   2.494   3.605   1.725
 2117SOL    HW2 6389   2.602   3.528   1.630
 2118SOL     OW 6390   2.765   1.948   0.133
 2118SOL    HW1 6391   2.816   1.949   0.047
 2118SOL    HW2 6392   2.821   1.906   0.204
 2119SOL     OW 6393   3.588   1.997   0.523
 2119SOL    HW1 6394   3.661   1.980   0.456
 2119SOL    HW2 6395   3.557   1.910   0.561
 2120SOL     OW 6396   3.250   3.435   0.477
 2120SOL    HW1 6397   3.317   3.447   0.403
 2120SOL    HW2 6398   3.210   3.524   0.500
 2121SOL     OW 6399   1.992   3.656   1.851
 2121SOL    HW1 6400   1.951   3.582   1.904
 2121SOL    HW2 6401   2.056   3.707   1.909
 2122SOL     OW 6402   3.142   2.789   0.672
 2122SOL    HW1 6403   3.202   2.708   0.674
 2122SOL    HW2 6404   3.182   2.858   0.612
 2123SOL     OW 6405   2.692   3.135   1.422
 2123SOL    HW1 6406   2.687   3.168   1.517
 2123SOL    HW2 6407   2.606   3.154   1.376
 2124SOL     OW 6408   2.534   3.478   0.154
 2124SOL    HW1 6409   2.543   3.488   0.055
 2124SOL    HW2 6410   2.494   3.389   0.175
 2125SOL     OW 6411   3.512   3.582   1.394
 2125SOL    HW1 6412   3.565   3.592   1.310
 2125SOL    HW2 6413   3.485   3.672   1.428
 2126SOL     OW 6414   3.703   2.037   0.963
 2126SOL    HW1 6415   3.742   1.952   0.927
 2126SOL    HW2 6416   3.605   2.039   0.944
 2127SOL     OW 6417   2.125   2.188   0.720
 2127SOL    HW1 6418   2.046   2.239   0.686
 2127SOL    HW2 6419   2.116   2.173   0.818
 2128SOL     OW 6420   3.056   3.474   0.031
 2128SOL    HW1 6421   3.062   3.381   0.068
 2128SOL    HW2 6422   2.997   3.474  -0.049
 2129SOL     OW 6423   2.684   2.864   1.372
 2129SOL    HW1 6424   2.724   2.863   1.280
 2129SOL    HW2 6425   2.694   2.956   1.412
 2130SOL     OW 6426   2.778   2.772   0.291
 2130SOL    HW1 6427   2.841   2.810   0.223
 2130SOL    HW2 6428   2.818   2.689   0.330
 2131SOL     OW 6429   3.366   3.469   0.044
 2131SOL    HW1 6430   3.274   3.506   0.051
 2131SOL    HW2 6431   3.404   3.489  -0.046
 2132SOL     OW 6432   2.234   3.150   1.490
 2132SOL    HW1 6433   2.221   3.243   1.456
 2132SOL    HW2 6434   2.150   3.098   1.477
 2133SOL     OW 6435   3.476   3.154   1.289
 2133SOL    HW1 6436   3.536   3.157   1.369
 2133SOL    HW2 6437   3.401   3.218   1.302
 2134SOL     OW 6438   2.901   2.960   0.696
 2134SOL    HW1 6439   2.831   2.913   0.750
 2134SOL    HW2 6440   2.960   2.892   0.653
 2135SOL     OW 6441   2.876   2.098   0.971
 2135SOL    HW1 6442   2.868   2.062   0.878
 2135SOL    HW2 6443   2.874   2.022   1.036
 2136SOL     OW 6444   2.452   3.349   0.491
 2136SOL    HW1 6445   2.494   3.291   0.421
 2136SOL    HW2 6446   2.408   3.428   0.447
 2137SOL     OW 6447   3.571   2.247   1.381
 2137SOL    HW1 6448   3.644   2.316   1.385
 2137SOL    HW2 6449   3.599   2.172   1.322
 2138SOL     OW 6450   2.117   3.210   0.290
 2138SOL    HW1 6451   2.021   3.211   0.263
 2138SOL    HW2 6452   2.129   3.263   0.374
 2139SOL     OW 6453   1.967   2.875   1.726
 2139SOL    HW1 6454   1.890   2.842   1.780
 2139SOL    HW2 6455   2.052   2.845   1.768
 2140SOL     OW 6456   2.534   2.065   1.489
 2140SOL    HW1 6457   2.624   2.049   1.449
 2140SOL    HW2 6458   2.542   2.070   1.588
 2141SOL     OW 6459   1.937   2.207   0.033
 2141SOL    HW1 6460   1.845   2.179   0.004
 2141SOL    HW2 6461   1.968   2.284  -0.023
 2142SOL     OW 6462   3.302   2.718   1.398
 2142SOL    HW1 6463   3.245   2.770   1.335
 2142SOL    HW2 6464   3.398   2.730   1.374
 2143SOL     OW 6465   1.934   2.028   0.318
 2143SOL    HW1 6466   1.917   2.111   0.264
 2143SOL    HW2 6467   2.024   1.991   0.296
 2144SOL     OW 6468   3.045   3.197   0.119
 2144SOL    HW1 6469   2.946   3.186   0.121
 2144SOL    HW2 6470   3.079   3.212   0.212
 2145SOL     OW 6471   2.475   2.704   1.431
 2145SOL    HW1 6472   2.531   2.785   1.414
 2145SOL    HW2 6473   2.534   2.624   1.434
 2146SOL     OW 6474   3.355   3.629   0.959
 2146SOL    HW1 6475   3.388   3.693   0.890
 2146SOL    HW2 6476   3.421   3.623   1.034
 2147SOL     OW 6477   2.578   2.427   1.708
 2147SOL    HW1 6478   2.597   2.492   1.782
 2147SOL    HW2 6479   2.638   2.347   1.717
 2148SOL     OW 6480   3.312   3.082   1.633
 2148SOL    HW1 6481   3.303   3.072   1.732
 2148SOL    HW2 6482   3.408   3.075   1.607
 2149SOL     OW 6483   2.252   3.603   1.560
 2149SOL    HW1 6484   2.161   3.644   1.558
 2149SOL    HW2 6485   2.245   3.509   1.592
 2150SOL     OW 6486   3.536   2.745   1.254
 2150SOL    HW1 6487   3.509   2.656   1.217
 2150SOL    HW2 6488   3.537   2.813   1.181
 2151SOL     OW 6489   3.087   2.187   0.449
 2151SOL    HW1 6490   3.152   2.113   0.438
 2151SOL    HW2 6491   3.107   2.237   0.533
 2152SOL     OW 6492   2.456   2.607   0.652
 2152SOL    HW1 6493   2.506   2.692   0.633
 2152SOL    HW2 6494   2.368   2.609   0.604
 2153SOL     OW 6495   3.639   2.204   1.642
 2153SOL    HW1 6496   3.622   2.235   1.548
 2153SOL    HW2 6497   3.555   2.167   1.680
 2154SOL     OW 6498   3.592   2.796   1.517
 2154SOL    HW1 6499   3.630   2.887   1.532
 2154SOL    HW2 6500   3.584   2.779   1.418
 2155SOL     OW 6501   2.721   3.236   0.016
 2155SOL    HW1 6502   2.675   3.251   0.104
 2155SOL    HW2 6503   2.765   3.321  -0.014
 2156SOL     OW 6504   2.523   3.652   0.953
 2156SOL    HW1 6505   2.477   3.740   0.940
 2156SOL    HW2 6506   2.622   3.664   0.946
 2157SOL     OW 6507   2.721   2.818   0.861
 2157SOL    HW1 6508   2.775   2.749   0.909
 2157SOL    HW2 6509   2.689   2.887   0.927
 2158SOL     OW 6510   2.945   2.846   0.087
 2158SOL    HW1 6511   2.922   2.899   0.005
 2158SOL    HW2 6512   3.026   2.790   0.068
 2159SOL     OW 6513   3.723   3.431   0.851
 2159SOL    HW1 6514   3.652   3.419   0.781
 2159SOL    HW2 6515   3.724   3.352   0.911
 2160SOL     OW 6516   2.083   3.176   1.844
 2160SOL    HW1 6517   2.018   3.103   1.823
 2160SOL    HW2 6518   2.087   3.190   1.942
 2161SOL     OW 6519   1.941   3.102   0.653
 2161SOL    HW1 6520   1.940   3.055   0.741
 2161SOL    HW2 6521   2.023   3.074   0.602
 2162SOL     OW 6522   2.534   3.253   1.624
 2162SOL    HW1 6523   2.456   3.203   1.662
 2162SOL    HW2 6524   2.531   3.348   1.655
 2163SOL     OW 6525   3.686   2.054   1.227
 2163SOL    HW1 6526   3.682   1.964   1.271
 2163SOL    HW2 6527   3.689   2.043   1.128
 2164SOL     OW 6528   2.290   2.286   0.520
 2164SOL    HW1 6529   2.320   2.214   0.458
 2164SOL    HW2 6530   2.251   2.246   0.603
 2165SOL     OW 6531   3.567   3.349   1.104
 2165SOL    HW1 6532   3.474   3.324   1.077
 2165SOL    HW2 6533   3.593   3.299   1.186
 2166SOL     OW 6534   2.179   2.409   1.280
 2166SOL    HW1 6535   2.217   2.350   1.352
 2166SOL    HW2 6536   2.219   2.383   1.192
 2167SOL     OW 6537   2.674   3.448   0.687
 2167SOL    HW1 6538   2.706   3.458   0.593
 2167SOL    HW2 6539   2.595   3.386   0.689
 2168SOL     OW 6540   3.286   2.076   1.112
 2168SOL    HW1 6541   3.338   2.011   1.167
 2168SOL    HW2 6542   3.237   2.139   1.173
 2169SOL     OW 6543   2.863   1.896   1.154
 2169SOL    HW1 6544   2.800   1.824   1.123
 2169SOL    HW2 6545   2.956   1.860   1.154
 2170SOL     OW 6546   2.632   3.192   0.301
 2170SOL    HW1 6547   2.586   3.105   0.318
 2170SOL    HW2 6548   2.723   3.189   0.342
 2171SOL     OW 6549   2.480   3.429   1.284
 2171SOL    HW1 6550   2.475   3.511   1.341
 2171SOL    HW2 6551   2.569   3.426   1.239
 2172SOL     OW 6552   3.214   1.914   0.168
 2172SOL    HW1 6553   3.249   1.873   0.084
 2172SOL    HW2 6554   3.124   1.876   0.188
 2173SOL     OW 6555   3.162   2.315   0.691
 2173SOL    HW1 6556   3.103   2.395   0.695
 2173SOL    HW2 6557   3.177   2.280   0.784
 2174SOL     OW 6558   3.455   2.083   0.882
 2174SOL    HW1 6559   3.371   2.082   0.936
 2174SOL    HW2 6560   3.457   2.166   0.826
 2175SOL     OW 6561   1.901   2.939   0.300
 2175SOL    HW1 6562   2.000   2.928   0.291
 2175SOL    HW2 6563   1.861   2.853   0.332
 2176SOL     OW 6564   2.737   3.508   0.337
 2176SOL    HW1 6565   2.660   3.473   0.283
 2176SOL    HW2 6566   2.705   3.579   0.399
 2177SOL     OW 6567   2.092   2.490   1.975
 2177SOL    HW1 6568   1.999   2.488   2.012
 2177SOL    HW2 6569   2.093   2.451   1.883
 2178SOL     OW 6570   2.087   2.137   2.858
 2178SOL    HW1 6571   2.122   2.120   2.950
 2178SOL    HW2 6572   1.999   2.092   2.846
 2179SOL     OW 6573   1.881   2.230   2.509
 2179SOL    HW1 6574   1.799   2.273   2.548
 2179SOL    HW2 6575   1.853   2.157   2.446
 2180SOL     OW 6576   2.431   3.137   3.027
 2180SOL    HW1 6577   2.338   3.130   2.990
 2180SOL    HW2 6578   2.442   3.226   3.071
 2181SOL     OW 6579   3.417   3.373   2.565
 2181SOL    HW1 6580   3.360   3.357   2.646
 2181SOL    HW2 6581   3.358   3.383   2.485
 2182SOL     OW 6582   2.997   2.565   2.579
 2182SOL    HW1 6583   3.054   2.643   2.554
 2182SOL    HW2 6584   2.937   2.591   2.655
 2183SOL     OW 6585   3.617   2.469   2.093
 2183SOL    HW1 6586   3.605   2.456   1.994
 2183SOL    HW2 6587   3.587   2.388   2.142
 2184SOL     OW 6588   2.630   3.006   2.885
 2184SOL    HW1 6589   2.552   3.023   2.945
 2184SOL    HW2 6590   2.664   3.093   2.849
 2185SOL     OW 6591   2.712   2.660   3.685
 2185SOL    HW1 6592   2.708   2.736   3.750
 2185SOL    HW2 6593   2.734   2.696   3.594
 2186SOL     OW 6594   2.547   2.874   2.527
 2186SOL    HW1 6595   2.616   2.858   2.597
 2186SOL    HW2 6596   2.474   2.931   2.565
 2187SOL     OW 6597   2.548   3.023   3.665
 2187SOL    HW1 6598   2.608   3.102   3.679
 2187SOL    HW2 6599   2.462   3.054   3.624
 2188SOL     OW 6600   2.197   3.297   2.923
 2188SOL    HW1 6601   2.119   3.266   2.870
 2188SOL    HW2 6602   2.255   3.355   2.866
 2189SOL     OW 6603   3.322   3.367   3.201
 2189SOL    HW1 6604   3.346   3.461   3.227
 2189SOL    HW2 6605   3.306   3.313   3.283
 2190SOL     OW 6606   2.300   2.254   3.361
 2190SOL    HW1 6607   2.382   2.198   3.370
 2190SOL    HW2 6608   2.219   2.196   3.365
 2191SOL     OW 6609   3.465   2.309   2.599
 2191SOL    HW1 6610   3.391   2.355   2.549
 2191SOL    HW2 6611   3.516   2.377   2.652
 2192SOL     OW 6612   2.093   3.575   2.345
 2192SOL    HW1 6613   2.127   3.652   2.399
 2192SOL    HW2 6614   2.137   3.575   2.255
 2193SOL     OW 6615   2.989   3.203   3.552
 2193SOL    HW1 6616   3.036   3.203   3.640
 2193SOL    HW2 6617   2.941   3.116   3.541
 2194SOL     OW 6618   2.092   3.296   2.400
 2194SOL    HW1 6619   2.066   3.392   2.400
 2194SOL    HW2 6620   2.021   3.242   2.445
 2195SOL     OW 6621   2.102   2.953   2.748
 2195SOL    HW1 6622   2.116   2.869   2.800
 2195SOL    HW2 6623   2.047   3.017   2.803
 2196SOL     OW 6624   2.482   3.648   3.301
 2196SOL    HW1 6625   2.390   3.631   3.336
 2196SOL    HW2 6626   2.510   3.740   3.327
 2197SOL     OW 6627   2.468   2.826   1.985
 2197SOL    HW1 6628   2.475   2.910   1.931
 2197SOL    HW2 6629   2.514   2.839   2.073
 2198SOL     OW 6630   3.456   1.976   3.342
 2198SOL    HW1 6631   3.438   2.043   3.270
 2198SOL    HW2 6632   3.453   2.022   3.431
 2199SOL     OW 6633   3.704   3.629   2.221
 2199SOL    HW1 6634   3.758   3.600   2.301
 2199SOL    HW2 6635   3.734   3.719   2.192
 2200SOL     OW 6636   1.889   3.458   1.979
 2200SOL    HW1 6637   1.870   3.362   2.000
 2200SOL    HW2 6638   1.856   3.516   2.054
 2201SOL     OW 6639   3.551   2.784   2.474
 2201SOL    HW1 6640   3.646   2.755   2.482
 2201SOL    HW2 6641   3.543   2.849   2.399
 2202SOL     OW 6642   3.503   2.970   2.294
 2202SOL    HW1 6643   3.589   2.972   2.242
 2202SOL    HW2 6644   3.517   3.017   2.382
 2203SOL     OW 6645   1.975   2.599   3.459
 2203SOL    HW1 6646   2.063   2.586   3.504
 2203SOL    HW2 6647   1.962   2.696   3.437
 2204SOL     OW 6648   2.475   3.227   2.588
 2204SOL    HW1 6649   2.426   3.140   2.597
 2204SOL    HW2 6650   2.452   3.270   2.501
 2205SOL     OW 6651   3.155   3.090   3.285
 2205SOL    HW1 6652   3.192   3.017   3.227
 2205SOL    HW2 6653   3.207   3.095   3.370
 2206SOL     OW 6654   2.059   2.838   3.126
 2206SOL    HW1 6655   2.148   2.793   3.112
 2206SOL    HW2 6656   1.986   2.773   3.107
 2207SOL     OW 6657   3.387   2.861   2.052
 2207SOL    HW1 6658   3.324   2.785   2.065
 2207SOL    HW2 6659   3.435   2.879   2.138
 2208SOL     OW 6660   3.049   3.654   3.478
 2208SOL    HW1 6661   3.073   3.714   3.402
 2208SOL    HW2 6662   3.056   3.559   3.448
 2209SOL     OW 6663   2.179   2.113   3.663
 2209SOL    HW1 6664   2.250   2.184   3.669
 2209SOL    HW2 6665   2.091   2.152   3.691
 2210SOL     OW 6666   3.328   3.279   2.815
 2210SOL    HW1 6667   3.269   3.285   2.895
 2210SOL    HW2 6668   3.313   3.191   2.769
 2211SOL     OW 6669   3.529   3.576   2.434
 2211SOL    HW1 6670   3.488   3.553   2.346
 2211SOL    HW2 6671   3.511   3.502   2.499
 2212SOL     OW 6672   2.460   2.591   2.132
 2212SOL    HW1 6673   2.484   2.660   2.064
 2212SOL    HW2 6674   2.382   2.624   2.186
 2213SOL     OW 6675   3.143   2.207   2.806
 2213SOL    HW1 6676   3.057   2.157   2.793
 2213SOL    HW2 6677   3.205   2.153   2.862
 2214SOL     OW 6678   3.438   3.524   2.169
 2214SOL    HW1 6679   3.527   3.570   2.172
 2214SOL    HW2 6680   3.417   3.500   2.074
 2215SOL     OW 6681   2.669   2.467   3.327
 2215SOL    HW1 6682   2.622   2.464   3.416
 2215SOL    HW2 6683   2.618   2.412   3.261
 2216SOL     OW 6684   3.256   2.331   3.536
 2216SOL    HW1 6685   3.236   2.374   3.624
 2216SOL    HW2 6686   3.334   2.269   3.545
 2217SOL     OW 6687   2.835   2.752   3.434
 2217SOL    HW1 6688   2.881   2.668   3.405
 2217SOL    HW2 6689   2.779   2.786   3.359
 2218SOL     OW 6690   2.853   2.272   3.104
 2218SOL    HW1 6691   2.776   2.306   3.158
 2218SOL    HW2 6692   2.819   2.221   3.025
 2219SOL     OW 6693   1.938   2.673   2.651
 2219SOL    HW1 6694   2.037   2.661   2.660
 2219SOL    HW2 6695   1.914   2.768   2.672
 2220SOL     OW 6696   1.992   3.683   3.433
 2220SOL    HW1 6697   1.982   3.668   3.532
 2220SOL    HW2 6698   1.906   3.719   3.397
 2221SOL     OW 6699   2.727   2.210   2.057
 2221SOL    HW1 6700   2.786   2.273   2.008
 2221SOL    HW2 6701   2.746   2.116   2.028
 2222SOL     OW 6702   3.581   2.447   3.693
 2222SOL    HW1 6703   3.555   2.536   3.657
 2222SOL    HW2 6704   3.579   2.379   3.620
 2223SOL     OW 6705   3.224   3.006   2.407
 2223SOL    HW1 6706   3.307   2.977   2.359
 2223SOL    HW2 6707   3.175   3.073   2.351
 2224SOL     OW 6708   2.412   2.058   2.747
 2224SOL    HW1 6709   2.407   2.053   2.847
 2224SOL    HW2 6710   2.414   2.154   2.718
 2225SOL     OW 6711   2.870   3.318   2.339
 2225SOL    HW1 6712   2.824   3.390   2.287
 2225SOL    HW2 6713   2.866   3.338   2.437
 2226SOL     OW 6714   2.213   3.663   2.715
 2226SOL    HW1 6715   2.263   3.577   2.721
 2226SOL    HW2 6716   2.278   3.740   2.712
 2227SOL     OW 6717   3.657   2.928   2.735
 2227SOL    HW1 6718   3.595   2.913   2.659
 2227SOL    HW2 6719   3.605   2.939   2.820
 2228SOL     OW 6720   3.089   3.412   3.368
 2228SOL    HW1 6721   3.095   3.335   3.432
 2228SOL    HW2 6722   3.037   3.386   3.288
 2229SOL     OW 6723   2.183   2.805   2.104
 2229SOL    HW1 6724   2.265   2.844   2.062
 2229SOL    HW2 6725   2.156   2.723   2.055
 2230SOL     OW 6726   3.320   2.597   2.590
 2230SOL    HW1 6727   3.315   2.532   2.665
 2230SOL    HW2 6728   3.400   2.656   2.603
 2231SOL     OW 6729   2.323   3.128   3.589
 2231SOL    HW1 6730   2.273   3.129   3.503
 2231SOL    HW2 6731   2.260   3.110   3.665
 2232SOL     OW 6732   2.973   3.638   2.099
 2232SOL    HW1 6733   2.913   3.576   2.149
 2232SOL    HW2 6734   3.004   3.594   2.014
 2233SOL     OW 6735   2.064   2.147   3.360
 2233SOL    HW1 6736   1.984   2.207   3.347
 2233SOL    HW2 6737   2.054   2.098   3.446
 2234SOL     OW 6738   3.494   3.239   1.943
 2234SOL    HW1 6739   3.462   3.333   1.933
 2234SOL    HW2 6740   3.418   3.176   1.931
 2235SOL     OW 6741   2.326   3.605   2.185
 2235SOL    HW1 6742   2.359   3.644   2.271
 2235SOL    HW2 6743   2.402   3.598   2.120
 2236SOL     OW 6744   3.262   1.969   2.288
 2236SOL    HW1 6745   3.238   1.932   2.198
 2236SOL    HW2 6746   3.361   1.985   2.292
 2237SOL     OW 6747   2.111   3.647   3.103
 2237SOL    HW1 6748   2.168   3.582   3.153
 2237SOL    HW2 6749   2.095   3.614   3.010
 2238SOL     OW 6750   2.802   3.560   2.766
 2238SOL    HW1 6751   2.882   3.503   2.787
 2238SOL    HW2 6752   2.753   3.520   2.689
 2239SOL     OW 6753   3.409   2.084   3.591
 2239SOL    HW1 6754   3.404   2.121   3.683
 2239SOL    HW2 6755   3.337   2.015   3.579
 2240SOL     OW 6756   2.476   1.984   1.979
 2240SOL    HW1 6757   2.574   1.962   1.986
 2240SOL    HW2 6758   2.445   1.967   1.886
 2241SOL     OW 6759   2.643   2.126   3.611
 2241SOL    HW1 6760   2.710   2.065   3.654
 2241SOL    HW2 6761   2.570   2.145   3.676
 2242SOL     OW 6762   2.750   3.376   3.057
 2242SOL    HW1 6763   2.727   3.351   2.963
 2242SOL    HW2 6764   2.811   3.307   3.096
 2243SOL     OW 6765   3.213   2.452   3.295
 2243SOL    HW1 6766   3.241   2.409   3.380
 2243SOL    HW2 6767   3.238   2.548   3.296
 2244SOL     OW 6768   2.665   3.264   2.786
 2244SOL    HW1 6769   2.755   3.278   2.744
 2244SOL    HW2 6770   2.594   3.266   2.715
 2245SOL     OW 6771   2.784   2.365   2.761
 2245SOL    HW1 6772   2.759   2.356   2.665
 2245SOL    HW2 6773   2.832   2.283   2.792
 2246SOL     OW 6774   2.401   1.926   2.374
 2246SOL    HW1 6775   2.320   1.927   2.432
 2246SOL    HW2 6776   2.404   2.009   2.319
 2247SOL     OW 6777   3.296   3.050   1.903
 2247SOL    HW1 6778   3.328   2.974   1.960
 2247SOL    HW2 6779   3.204   3.077   1.933
 2248SOL     OW 6780   2.159   1.897   2.033
 2248SOL    HW1 6781   2.208   1.981   2.012
 2248SOL    HW2 6782   2.221   1.832   2.078
 2249SOL     OW 6783   2.938   2.545   3.326
 2249SOL    HW1 6784   2.858   2.484   3.329
 2249SOL    HW2 6785   3.019   2.492   3.302
 2250SOL     OW 6786   3.089   3.432   2.655
 2250SOL    HW1 6787   3.110   3.506   2.590
 2250SOL    HW2 6788   3.157   3.432   2.728
 2251SOL     OW 6789   2.321   3.014   2.603
 2251SOL    HW1 6790   2.250   2.987   2.668
 2251SOL    HW2 6791   2.295   2.986   2.510
 2252SOL     OW 6792   3.133   3.659   2.453
 2252SOL    HW1 6793   3.177   3.723   2.389
 2252SOL    HW2 6794   3.083   3.711   2.523
 2253SOL     OW 6795   2.894   2.411   1.878
 2253SOL    HW1 6796   2.853   2.493   1.839
 2253SOL    HW2 6797   2.958   2.437   1.951
 2254SOL     OW 6798   1.940   2.418   3.248
 2254SOL    HW1 6799   2.032   2.417   3.207
 2254SOL    HW2 6800   1.934   2.492   3.315
 2255SOL     OW 6801   2.423   2.084   3.009
 2255SOL    HW1 6802   2.461   2.000   3.046
 2255SOL    HW2 6803   2.335   2.103   3.053
 2256SOL     OW 6804   2.879   1.901   2.615
 2256SOL    HW1 6805   2.807   1.906   2.546
 2256SOL    HW2 6806   2.855   1.832   2.684
 2257SOL     OW 6807   3.291   3.035   2.729
 2257SOL    HW1 6808   3.236   2.951   2.722
 2257SOL    HW2 6809   3.317   3.064   2.637
 2258SOL     OW 6810   3.328   2.452   2.854
 2258SOL    HW1 6811   3.298   2.357   2.861
 2258SOL    HW2 6812   3.401   2.468   2.920
 2259SOL     OW 6813   3.719   2.695   2.239
 2259SOL    HW1 6814   3.761   2.631   2.303
 2259SOL    HW2 6815   3.681   2.644   2.161
 2260SOL     OW 6816   2.350   3.247   2.036
 2260SOL    HW1 6817   2.263   3.232   2.083
 2260SOL    HW2 6818   2.333   3.273   1.941
 2261SOL     OW 6819   3.526   3.142   2.519
 2261SOL    HW1 6820   3.625   3.150   2.533
 2261SOL    HW2 6821   3.481   3.226   2.550
 2262SOL     OW 6822   3.252   2.437   1.940
 2262SOL    HW1 6823   3.198   2.416   2.021
 2262SOL    HW2 6824   3.343   2.396   1.949
 2263SOL     OW 6825   2.389   2.118   2.190
 2263SOL    HW1 6826   2.416   2.059   2.115
 2263SOL    HW2 6827   2.389   2.213   2.159
 2264SOL     OW 6828   3.616   3.085   3.450
 2264SOL    HW1 6829   3.707   3.046   3.437
 2264SOL    HW2 6830   3.624   3.181   3.474
 2265SOL     OW 6831   2.926   3.209   3.202
 2265SOL    HW1 6832   2.846   3.186   3.257
 2265SOL    HW2 6833   3.009   3.183   3.251
 2266SOL     OW 6834   3.454   3.491   3.487
 2266SOL    HW1 6835   3.481   3.525   3.397
 2266SOL    HW2 6836   3.533   3.453   3.533
 2267SOL     OW 6837   2.973   3.057   2.962
 2267SOL    HW1 6838   2.933   3.101   3.043
 2267SOL    HW2 6839   2.932   3.094   2.879
 2268SOL     OW 6840   3.500   2.961   2.941
 2268SOL    HW1 6841   3.505   3.042   3.000
 2268SOL    HW2 6842   3.414   2.963   2.890
 2269SOL     OW 6843   2.777   1.951   3.264
 2269SOL    HW1 6844   2.802   1.931   3.169
 2269SOL    HW2 6845   2.849   2.007   3.306
 2270SOL     OW 6846   2.842   2.978   3.581
 2270SOL    HW1 6847   2.743   2.984   3.591
 2270SOL    HW2 6848   2.865   2.898   3.525
 2271SOL     OW 6849   2.567   2.912   2.230
 2271SOL    HW1 6850   2.553   2.919   2.329
 2271SOL    HW2 6851   2.651   2.861   2.212
 2272SOL     OW 6852   2.272   2.675   3.113
 2272SOL    HW1 6853   2.358   2.687   3.163
 2272SOL    HW2 6854   2.230   2.588   3.140
 2273SOL     OW 6855   3.136   2.248   3.124
 2273SOL    HW1 6856   3.157   2.322   3.188
 2273SOL    HW2 6857   3.047   2.265   3.081
 2274SOL     OW 6858   1.926   3.426   3.193
 2274SOL    HW1 6859   1.880   3.508   3.159
 2274SOL    HW2 6860   2.024   3.445   3.202
 2275SOL     OW 6861   2.229   2.962   2.363
 2275SOL    HW1 6862   2.222   3.045   2.307
 2275SOL    HW2 6863   2.233   2.882   2.303
 2276SOL     OW 6864   2.428   2.399   2.727
 2276SOL    HW1 6865   2.440   2.465   2.653
 2276SOL    HW2 6866   2.474   2.433   2.810
 2277SOL     OW 6867   3.114   3.210   2.250
 2277SOL    HW1 6868   3.164   3.287   2.290
 2277SOL    HW2 6869   3.019   3.212   2.282
 2278SOL     OW 6870   3.134   3.307   3.004
 2278SOL    HW1 6871   3.181   3.320   3.091
 2278SOL    HW2 6872   3.068   3.233   3.013
 2279SOL     OW 6873   3.444   2.501   2.334
 2279SOL    HW1 6874   3.413   2.562   2.407
 2279SOL    HW2 6875   3.494   2.553   2.265
 2280SOL     OW 6876   2.216   3.372   3.191
 2280SOL    HW1 6877   2.195   3.328   3.104
 2280SOL    HW2 6878   2.313   3.398   3.194
 2281SOL     OW 6879   2.264   2.613   3.460
 2281SOL    HW1 6880   2.332   2.668   3.413
 2281SOL    HW2 6881   2.304   2.525   3.487
 2282SOL     OW 6882   3.449   2.641   3.532
 2282SOL    HW1 6883   3.357   2.679   3.527
 2282SOL    HW2 6884   3.509   2.688   3.467
 2283SOL     OW 6885   2.875   1.967   3.632
 2283SOL    HW1 6886   2.881   2.052   3.580
 2283SOL    HW2 6887   2.907   1.891   3.575
 2284SOL     OW 6888   2.366   1.912   3.602
 2284SOL    HW1 6889   2.324   1.855   3.532
 2284SOL    HW2 6890   2.300   1.981   3.634
 2285SOL     OW 6891   2.435   2.732   2.891
 2285SOL    HW1 6892   2.479   2.821   2.882
 2285SOL    HW2 6893   2.372   2.732   2.968
 2286SOL     OW 6894   3.222   2.724   2.907
 2286SOL    HW1 6895   3.147   2.724   2.841
 2286SOL    HW2 6896   3.259   2.632   2.916
 2287SOL     OW 6897   3.071   2.387   2.137
 2287SOL    HW1 6898   3.084   2.303   2.191
 2287SOL    HW2 6899   3.042   2.461   2.197
 2288SOL     OW 6900   2.169   2.075   3.093
 2288SOL    HW1 6901   2.146   2.112   3.183
 2288SOL    HW2 6902   2.139   1.980   3.087
 2289SOL     OW 6903   1.899   3.172   3.144
 2289SOL    HW1 6904   1.952   3.123   3.212
 2289SOL    HW2 6905   1.921   3.270   3.149
 2290SOL     OW 6906   2.594   2.496   2.926
 2290SOL    HW1 6907   2.653   2.470   2.850
 2290SOL    HW2 6908   2.566   2.592   2.915
 2291SOL     OW 6909   3.590   2.797   3.716
 2291SOL    HW1 6910   3.544   2.790   3.627
 2291SOL    HW2 6911   3.528   2.841   3.782
 2292SOL     OW 6912   2.169   1.925   2.480
 2292SOL    HW1 6913   2.158   2.019   2.513
 2292SOL    HW2 6914   2.164   1.862   2.557
 2293SOL     OW 6915   3.484   2.229   2.236
 2293SOL    HW1 6916   3.486   2.153   2.300
 2293SOL    HW2 6917   3.436   2.306   2.276
 2294SOL     OW 6918   2.885   2.628   2.828
 2294SOL    HW1 6919   2.900   2.649   2.924
 2294SOL    HW2 6920   2.855   2.533   2.819
 2295SOL     OW 6921   2.842   3.435   3.562
 2295SOL    HW1 6922   2.822   3.479   3.474
 2295SOL    HW2 6923   2.881   3.344   3.546
 2296SOL     OW 6924   3.721   3.380   3.467
 2296SOL    HW1 6925   3.735   3.407   3.372
 2296SOL    HW2 6926   3.804   3.402   3.520
 2297SOL     OW 6927   2.212   2.760   3.666
 2297SOL    HW1 6928   2.288   2.804   3.714
 2297SOL    HW2 6929   2.247   2.713   3.584
 2298SOL     OW 6930   3.402   2.136   1.987
 2298SOL    HW1 6931   3.341   2.061   2.010
 2298SOL    HW2 6932   3.424   2.188   2.070
 2299SOL     OW 6933   3.165   2.700   1.904
 2299SOL    HW1 6934   3.199   2.607   1.919
 2299SOL    HW2 6935   3.183   2.727   1.809
 2300SOL     OW 6936   2.930   3.195   2.711
 2300SOL    HW1 6937   2.937   3.111   2.656
 2300SOL    HW2 6938   2.992   3.264   2.675
 2301SOL     OW 6939   2.181   2.672   2.811
 2301SOL    HW1 6940   2.274   2.708   2.816
 2301SOL    HW2 6941   2.175   2.587   2.863
 2302SOL     OW 6942   2.201   2.371   2.868
 2302SOL    HW1 6943   2.149   2.288   2.851
 2302SOL    HW2 6944   2.278   2.376   2.804
 2303SOL     OW 6945   3.000   2.242   3.540
 2303SOL    HW1 6946   2.955   2.305   3.604
 2303SOL    HW2 6947   3.093   2.273   3.523
 2304SOL     OW 6948   3.022   2.069   3.339
 2304SOL    HW1 6949   3.022   2.133   3.416
 2304SOL    HW2 6950   3.050   2.117   3.256
 2305SOL     OW 6951   1.870   3.188   2.062
 2305SOL    HW1 6952   1.777   3.209   2.031
 2305SOL    HW2 6953   1.880   3.089   2.075
 2306SOL     OW 6954   1.950   3.663   2.789
 2306SOL    HW1 6955   1.908   3.577   2.762
 2306SOL    HW2 6956   2.044   3.666   2.755
 2307SOL     OW 6957   2.366   3.430   2.772
 2307SOL    HW1 6958   2.432   3.504   2.781
 2307SOL    HW2 6959   2.410   3.351   2.730
 2308SOL     OW 6960   2.864   2.658   3.100
 2308SOL    HW1 6961   2.905   2.626   3.186
 2308SOL    HW2 6962   2.768   2.631   3.097
 2309SOL     OW 6963   1.902   2.406   2.976
 2309SOL    HW1 6964   1.987   2.373   2.935
 2309SOL    HW2 6965   1.915   2.421   3.074
 2310SOL     OW 6966   2.051   2.382   3.584
 2310SOL    HW1 6967   2.110   2.342   3.514
 2310SOL    HW2 6968   1.993   2.453   3.543
 2311SOL     OW 6969   3.231   2.812   3.522
 2311SOL    HW1 6970   3.270   2.901   3.542
 2311SOL    HW2 6971   3.241   2.792   3.425
 2312SOL     OW 6972   3.519   2.466   3.068
 2312SOL    HW1 6973   3.481   2.397   3.130
 2312SOL    HW2 6974   3.601   2.430   3.024
 2313SOL     OW 6975   2.114   3.426   3.606
 2313SOL    HW1 6976   2.084   3.483   3.682
 2313SOL    HW2 6977   2.107   3.329   3.632
 2314SOL     OW 6978   2.533   2.326   3.131
 2314SOL    HW1 6979   2.499   2.237   3.101
 2314SOL    HW2 6980   2.559   2.380   3.051
 2315SOL     OW 6981   2.792   3.540   3.327
 2315SOL    HW1 6982   2.768   3.522   3.232
 2315SOL    HW2 6983   2.822   3.634   3.337
 2316SOL     OW 6984   2.335   2.362   2.053
 2316SOL    HW1 6985   2.396   2.442   2.057
 2316SOL    HW2 6986   2.240   2.393   2.060
 2317SOL     OW 6987   2.021   2.999   3.328
 2317SOL    HW1 6988   2.043   2.938   3.404
 2317SOL    HW2 6989   2.031   2.950   3.242
 2318SOL     OW 6990   3.209   2.921   3.096
 2318SOL    HW1 6991   3.233   2.858   3.022
 2318SOL    HW2 6992   3.119   2.961   3.078
 2319SOL     OW 6993   3.164   2.717   2.171
 2319SOL    HW1 6994   3.078   2.686   2.213
 2319SOL    HW2 6995   3.160   2.703   2.072
 2320SOL     OW 6996   3.621   3.609   3.016
 2320SOL    HW1 6997   3.682   3.639   2.943
 2320SOL    HW2 6998   3.583   3.520   2.994
 2321SOL     OW 6999   3.114   3.593   2.990
 2321SOL    HW1 7000   3.198   3.598   2.936
 2321SOL    HW2 7001   3.091   3.497   3.008
 2322SOL     OW 7002   1.945   3.120   2.884
 2322SOL    HW1 7003   1.940   3.119   2.984
 2322SOL    HW2 7004   1.862   3.079   2.846
 2323SOL     OW 7005   2.550   3.524   3.578
 2323SOL    HW1 7006   2.494   3.605   3.587
 2323SOL    HW2 7007   2.602   3.528   3.492
 2324SOL     OW 7008   3.588   1.997   2.385
 2324SOL    HW1 7009   3.661   1.980   2.318
 2324SOL    HW2 7010   3.557   1.910   2.423
 2325SOL     OW 7011   3.250   3.435   2.339
 2325SOL    HW1 7012   3.317   3.447   2.265
 2325SOL    HW2 7013   3.210   3.524   2.362
 2326SOL     OW 7014   1.992   3.656   3.713
 2326SOL    HW1 7015   1.951   3.582   3.766
 2326SOL    HW2 7016   2.056   3.707   3.771
 2327SOL     OW 7017   3.142   2.789   2.534
 2327SOL    HW1 7018   3.202   2.708   2.536
 2327SOL    HW2 7019   3.182   2.858   2.474
 2328SOL     OW 7020   2.692   3.135   3.284
 2328SOL    HW1 7021   2.687   3.168   3.379
 2328SOL    HW2 7022   2.606   3.154   3.238
 2329SOL     OW 7023   2.534   3.478   2.016
 2329SOL    HW1 7024   2.543   3.488   1.917
 2329SOL    HW2 7025   2.494   3.389   2.037
 2330SOL     OW 7026   3.512   3.582   3.256
 2330SOL    HW1 7027   3.565   3.592   3.172
 2330SOL    HW2 7028   3.485   3.672   3.290
 2331SOL     OW 7029   3.703   2.037   2.825
 2331SOL    HW1 7030   3.742   1.952   2.789
 2331SOL    HW2 7031   3.605   2.039   2.806
 2332SOL     OW 7032   2.125   2.188   2.582
 2332SOL    HW1 7033   2.046   2.239   2.548
 2332SOL    HW2 7034   2.116   2.173   2.680
 2333SOL     OW 7035   3.056   3.474   1.893
 2333SOL    HW1 7036   3.062   3.381   1.930
 2333SOL    HW2 7037   2.997   3.474   1.813
 2334SOL     OW 7038   2.684   2.864   3.234
 2334SOL    HW1 7039   2.724   2.863   3.142
 2334SOL    HW2 7040   2.694   2.956   3.274
 2335SOL     OW 7041   2.778   2.772   2.153
 2335SOL    HW1 7042   2.841   2.810   2.085
 2335SOL    HW2 7043   2.818   2.689   2.192
 2336SOL     OW 7044   3.366   3.469   1.906
 2336SOL    HW1 7045   3.274   3.506   1.913
 2336SOL    HW2 7046   3.404   3.489   1.816
 2337SOL     OW 7047   2.234   3.150   3.352
 2337SOL    HW1 7048   2.221   3.243   3.318
 2337SOL    HW2 7049   2.150   3.098   3.339
 2338SOL     OW 7050   3.476   3.154   3.151
 2338SOL    HW1 7051   3.536   3.157   3.231
 2338SOL    HW2 7052   3.401   3.218   3.164
 2339SOL     OW 7053   2.901   2.960   2.558
 2339SOL    HW1 7054   2.831   2.913   2.612
 2339SOL    HW2 7055   2.960   2.892   2.515
 2340SOL     OW 7056   2.876   2.098   2.833
 2340SOL    HW1 7057   2.868   2.062   2.740
 2340SOL    HW2 7058   2.874   2.022   2.898
 2341SOL     OW 7059   2.452   3.349   2.353
 2341SOL    HW1 7060   2.494   3.291   2.283
 2341SOL    HW2 7061   2.408   3.428   2.309
 2342SOL     OW 7062   3.571   2.247   3.243
 2342SOL    HW1 7063   3.644   2.316   3.247
 2342SOL    HW2 7064   3.599   2.172   3.184
 2343SOL     OW 7065   2.117   3.210   2.152
 2343SOL    HW1 7066   2.021   3.211   2.125
 2343SOL    HW2 7067   2.129   3.263   2.236
 2344SOL     OW 7068   1.967   2.875   3.588
 2344SOL    HW1 7069   1.890   2.842   3.642
 2344SOL    HW2 7070   2.052   2.845   3.630
 2345SOL     OW 7071   2.534   2.065   3.351
 2345SOL    HW1 7072   2.624   2.049   3.311
 2345SOL    HW2 7073   2.542   2.070   3.450
 2346SOL     OW 7074   1.937   2.207   1.895
 2346SOL    HW1 7075   1.845   2.179   1.866
 2346SOL    HW2 7076   1.968   2.284   1.839
 2347SOL     OW 7077   3.302   2.718   3.260
 2347SOL    HW1 7078   3.245   2.770   3.197
 2347SOL    HW2 7079   3.398   2.730   3.236
 2348SOL     OW 7080   1.934   2.028   2.180
 2348SOL    HW1 7081   1.917   2.111   2.126
 2348SOL    HW2 7082   2.024   1.991   2.158
 2349SOL     OW 7083   3.045   3.197   1.981
 2349SOL    HW1 7084   2.946   3.186   1.983
 2349SOL    HW2 7085   3.079   3.212   2.074
 2350SOL     OW 7086   2.475   2.704   3.293
 2350SOL    HW1 7087   2.531   2.785   3.276
 2350SOL    HW2 7088   2.534   2.624   3.296
 2351SOL     OW 7089   3.355   3.629   2.821
 2351SOL    HW1 7090   3.388   3.693   2.752
 2351SOL    HW2 7091   3.421   3.623   2.896
 2352SOL     OW 7092   2.578   2.427   3.570
 2352SOL    HW1 7093   2.597   2.492   3.644
 2352SOL    HW2 7094   2.638   2.347   3.579
 2353SOL     OW 7095   3.312   3.082   3.495
 2353SOL    HW1 7096   3.303   3.072   3.594
 2353SOL    HW2 7097   3.408   3.075   3.469
 2354SOL     OW 7098   2.252   3.603   3.422
 2354SOL    HW1 7099   2.161   3.644   3.420
 2354SOL    HW2 7100   2.245   3.509   3.454
 2355SOL     OW 7101   3.536   2.745   3.116
 2355SOL    HW1 7102   3.509   2.656   3.079
 2355SOL    HW2 7103   3.537   2.813   3.043
 2356SOL     OW 7104   3.087   2.187   2.311
 2356SOL    HW1 7105   3.152   2.113   2.300
 2356SOL    HW2 7106   3.107   2.237   2.395
 2357SOL     OW 7107   2.456   2.607   2.514
 2357SOL    HW1 7108   2.506   2.692   2.495
 2357SOL    HW2 7109   2.368   2.609   2.466
 2358SOL     OW 7110   3.639   2.204   3.504
 2358SOL    HW1 7111   3.622   2.235   3.410
 2358SOL    HW2 7112   3.555   2.167   3.542
 2359SOL     OW 7113   3.592   2.796   3.379
 2359SOL    HW1 7114   3.630   2.887   3.394
 2359SOL    HW2 7115   3.584   2.779   3.280
 2360SOL     OW 7116   2.721   3.236   1.878
 2360SOL    HW1 7117   2.675   3.251   1.966
 2360SOL    HW2 7118   2.765   3.321   1.848
 2361SOL     OW 7119   2.523   3.652   2.815
 2361SOL    HW1 7120   2.477   3.740   2.802
 2361SOL    HW2 7121   2.622   3.664   2.808
 2362SOL     OW 7122   2.721   2.818   2.723
 2362SOL    HW1 7123   2.775   2.749   2.771
 2362SOL    HW2 7124   2.689   2.887   2.789
 2363SOL     OW 7125   2.945   2.846   1.949
 2363SOL    HW1 7126   2.922   2.899   1.867
 2363SOL    HW2 7127   3.026   2.790   1.930
 2364SOL     OW 7128   3.723   3.431   2.713
 2364SOL    HW1 7129   3.652   3.419   2.643
 2364SOL    HW2 7130   3.724   3.352   2.773
 2365SOL     OW 7131   2.083   3.176   3.706
 2365SOL    HW1 7132   2.018   3.103   3.685
 2365SOL    HW2 7133   2.087   3.190   3.804
 2366SOL     OW 7134   1.941   3.102   2.515
 2366SOL    HW1 7135   1.940   3.055   2.603
 2366SOL    HW2 7136   2.023   3.074   2.464
 2367SOL     OW 7137   2.534   3.253   3.486
 2367SOL    HW1 7138   2.456   3.203   3.524
 2367SOL    HW2 7139   2.531   3.348   3.517
 2368SOL     OW 7140   3.686   2.054   3.089
 2368SOL    HW1 7141   3.682   1.964   3.133
 2368SOL    HW2 7142   3.689   2.043   2.990
 2369SOL     OW 7143   3.567   3.349   2.966
 2369SOL    HW1 7144   3.474   3.324   2.939
 2369SOL    HW2 7145   3.593   3.299   3.048
 2370SOL     OW 7146   2.179   2.409   3.142
 2370SOL    HW1 7147   2.217   2.350   3.214
 2370SOL    HW2 7148   2.219   2.383   3.054
 2371SOL     OW 7149   2.674   3.448   2.549
 2371SOL    HW1 7150   2.706   3.458   2.455
 2371SOL    HW2 7151   2.595   3.386   2.551
 2372SOL     OW 7152   3.286   2.076   2.974
 2372SOL    HW1 7153   3.338   2.011   3.029
 2372SOL    HW2 7154   3.237   2.139   3.035
 2373SOL     OW 7155   2.863   1.896   3.016
 2373SOL    HW1 7156   2.800   1.824   2.985
 2373SOL    HW2 7157   2.956   1.860   3.016
 2374SOL     OW 7158   2.632   3.192   2.163
 2374SOL    HW1 7159   2.586   3.105   2.180
 2374SOL    HW2 7160   2.723   3.189   2.204
 2375SOL     OW 7161   2.480   3.429   3.146
 2375SOL    HW1 7162   2.475   3.511   3.203
 2375SOL    HW2 7163   2.569   3.426   3.101
 2376SOL     OW 7164   3.214   1.914   2.030
 2376SOL    HW1 7165   3.249   1.873   1.946
 2376SOL    HW2 7166   3.124   1.876   2.050
 2377SOL     OW 7167   3.162   2.315   2.553
 2377SOL    HW1 7168   3.103   2.395   2.557
 2377SOL    HW2 7169   3.177   2.280   2.646
 2378SOL     OW 7170   3.455   2.083   2.744
 2378SOL    HW1 7171   3.371   2.082   2.798
 2378SOL    HW2 7172   3.457   2.166   2.688
 2379SOL     OW 7173   1.901   2.939   2.162
 2379SOL    HW1 7174   2.000   2.928   2.153
 2379SOL    HW2 7175   1.861   2.853   2.194
 2380SOL     OW 7176   2.737   3.508   2.199
 2380SOL    HW1 7177   2.660   3.473   2.145
 2380SOL    HW2 7178   2.705   3.579   2.261
 2381SOL     OW 7179   2.092   2.490   3.837
 2381SOL    HW1 7180   1.999   2.488   3.874
 2381SOL    HW2 7181   2.093   2.451   3.745
 2382SOL     OW 7182   2.087   2.137   4.720
 2382SOL    HW1 7183   2.122   2.120   4.812
 2382SOL    HW2 7184   1.999   2.092   4.708
 2383SOL     OW 7185   1.881   2.230   4.371
 2383SOL    HW1 7186   1.799   2.273   4.410
 2383SOL    HW2 7187   1.853   2.157   4.308
 2384SOL     OW 7188   3.417   3.373   4.427
 2384SOL    HW1 7189   3.360   3.357   4.508
 2384SOL    HW2 7190   3.358   3.383   4.347
 2385SOL     OW 7191   2.997   2.565   4.441
 2385SOL    HW1 7192   3.054   2.643   4.416
 2385SOL    HW2 7193   2.937   2.591   4.517
 2386SOL     OW 7194   3.617   2.469   3.955
 2386SOL    HW1 7195   3.605   2.456   3.856
 2386SOL    HW2 7196   3.587   2.388   4.004
 2387SOL     OW 7197   2.630   3.006   4.747
 2387SOL    HW1 7198   2.552   3.023   4.807
 2387SOL    HW2 7199   2.664   3.093   4.711
 2388SOL     OW 7200   2.547   2.874   4.389
 2388SOL    HW1 7201   2.616   2.858   4.459
 2388SOL    HW2 7202   2.474   2.931   4.427
 2389SOL     OW 7203   2.197   3.297   4.785
 2389SOL    HW1 7204   2.119   3.266   4.732
 2389SOL    HW2 7205   2.255   3.355   4.728
 2390SOL     OW 7206   3.465   2.309   4.461
 2390SOL    HW1 7207   3.391   2.355   4.411
 2390SOL    HW2 7208   3.516   2.377   4.514
 2391SOL     OW 7209   2.093   3.575   4.207
 2391SOL    HW1 7210   2.127   3.652   4.261
 2391SOL    HW2 7211   2.137   3.575   4.117
 2392SOL     OW 7212   2.092   3.296   4.262
 2392SOL    HW1 7213   2.066   3.392   4.262
 2392SOL    HW2 7214   2.021   3.242   4.307
 2393SOL     OW 7215   2.102   2.953   4.610
 2393SOL    HW1 7216   2.116   2.869   4.662
 2393SOL    HW2 7217   2.047   3.017   4.665
 2394SOL     OW 7218   2.468   2.826   3.847
 2394SOL    HW1 7219   2.475   2.910   3.793
 2394SOL    HW2 7220   2.514   2.839   3.935
 2395SOL     OW 7221   1.984   2.505   4.287
 2395SOL    HW1 7222   1.939   2.417   4.304
 2395SOL    HW2 7223   1.983   2.559   4.371
 2396SOL     OW 7224   3.704   3.629   4.083
 2396SOL    HW1 7225   3.758   3.600   4.163
 2396SOL    HW2 7226   3.734   3.719   4.054
 2397SOL     OW 7227   1.889   3.458   3.841
 2397SOL    HW1 7228   1.870   3.362   3.862
 2397SOL    HW2 7229   1.856   3.516   3.916
 2398SOL     OW 7230   3.551   2.784   4.336
 2398SOL    HW1 7231   3.646   2.755   4.344
 2398SOL    HW2 7232   3.543   2.849   4.261
 2399SOL     OW 7233   3.503   2.970   4.156
 2399SOL    HW1 7234   3.589   2.972   4.104
 2399SOL    HW2 7235   3.517   3.017   4.244
 2400SOL     OW 7236   2.475   3.227   4.450
 2400SOL    HW1 7237   2.426   3.140   4.459
 2400SOL    HW2 7238   2.452   3.270   4.363
 2401SOL     OW 7239   2.671   1.866   4.226
 2401SOL    HW1 7240   2.711   1.957   4.217
 2401SOL    HW2 7241   2.571   1.874   4.232
 2402SOL     OW 7242   3.387   2.861   3.914
 2402SOL    HW1 7243   3.324   2.785   3.927
 2402SOL    HW2 7244   3.435   2.879   4.000
 2403SOL     OW 7245   3.328   3.279   4.677
 2403SOL    HW1 7246   3.269   3.285   4.757
 2403SOL    HW2 7247   3.313   3.191   4.631
 2404SOL     OW 7248   3.529   3.576   4.296
 2404SOL    HW1 7249   3.488   3.553   4.208
 2404SOL    HW2 7250   3.511   3.502   4.361
 2405SOL     OW 7251   2.460   2.591   3.994
 2405SOL    HW1 7252   2.484   2.660   3.926
 2405SOL    HW2 7253   2.382   2.624   4.048
 2406SOL     OW 7254   3.143   2.207   4.668
 2406SOL    HW1 7255   3.057   2.157   4.655
 2406SOL    HW2 7256   3.205   2.153   4.724
 2407SOL     OW 7257   3.438   3.524   4.031
 2407SOL    HW1 7258   3.527   3.570   4.034
 2407SOL    HW2 7259   3.417   3.500   3.936
 2408SOL     OW 7260   2.903   2.563   4.153
 2408SOL    HW1 7261   2.929   2.559   4.249
 2408SOL    HW2 7262   2.818   2.512   4.139
 2409SOL     OW 7263   1.938   2.673   4.513
 2409SOL    HW1 7264   2.037   2.661   4.522
 2409SOL    HW2 7265   1.914   2.768   4.534
 2410SOL     OW 7266   2.727   2.210   3.919
 2410SOL    HW1 7267   2.786   2.273   3.870
 2410SOL    HW2 7268   2.746   2.116   3.890
 2411SOL     OW 7269   3.224   3.006   4.269
 2411SOL    HW1 7270   3.307   2.977   4.221
 2411SOL    HW2 7271   3.175   3.073   4.213
 2412SOL     OW 7272   2.412   2.058   4.609
 2412SOL    HW1 7273   2.407   2.053   4.709
 2412SOL    HW2 7274   2.414   2.154   4.580
 2413SOL     OW 7275   2.870   3.318   4.201
 2413SOL    HW1 7276   2.824   3.390   4.149
 2413SOL    HW2 7277   2.866   3.338   4.299
 2414SOL     OW 7278   2.213   3.663   4.577
 2414SOL    HW1 7279   2.263   3.577   4.583
 2414SOL    HW2 7280   2.278   3.740   4.574
 2415SOL     OW 7281   3.657   2.928   4.597
 2415SOL    HW1 7282   3.595   2.913   4.521
 2415SOL    HW2 7283   3.605   2.939   4.682
 2416SOL     OW 7284   2.183   2.805   3.966
 2416SOL    HW1 7285   2.265   2.844   3.924
 2416SOL    HW2 7286   2.156   2.723   3.917
 2417SOL     OW 7287   3.320   2.597   4.452
 2417SOL    HW1 7288   3.315   2.532   4.527
 2417SOL    HW2 7289   3.400   2.656   4.465
 2418SOL     OW 7290   2.973   3.638   3.961
 2418SOL    HW1 7291   2.913   3.576   4.011
 2418SOL    HW2 7292   3.004   3.594   3.876
 2419SOL     OW 7293   3.494   3.239   3.805
 2419SOL    HW1 7294   3.462   3.333   3.795
 2419SOL    HW2 7295   3.418   3.176   3.793
 2420SOL     OW 7296   2.326   3.605   4.047
 2420SOL    HW1 7297   2.359   3.644   4.133
 2420SOL    HW2 7298   2.402   3.598   3.982
 2421SOL     OW 7299   3.262   1.969   4.150
 2421SOL    HW1 7300   3.238   1.932   4.060
 2421SOL    HW2 7301   3.361   1.985   4.154
 2422SOL     OW 7302   2.111   3.647   4.965
 2422SOL    HW1 7303   2.168   3.582   5.015
 2422SOL    HW2 7304   2.095   3.614   4.872
 2423SOL     OW 7305   2.802   3.560   4.628
 2423SOL    HW1 7306   2.882   3.503   4.649
 2423SOL    HW2 7307   2.753   3.520   4.551
 2424SOL     OW 7308   2.244   2.562   4.204
 2424SOL    HW1 7309   2.289   2.472   4.201
 2424SOL    HW2 7310   2.150   2.551   4.237
 2425SOL     OW 7311   2.476   1.984   3.841
 2425SOL    HW1 7312   2.574   1.962   3.848
 2425SOL    HW2 7313   2.445   1.967   3.748
 2426SOL     OW 7314   2.665   3.264   4.648
 2426SOL    HW1 7315   2.755   3.278   4.606
 2426SOL    HW2 7316   2.594   3.266   4.577
 2427SOL     OW 7317   2.784   2.365   4.623
 2427SOL    HW1 7318   2.759   2.356   4.527
 2427SOL    HW2 7319   2.832   2.283   4.654
 2428SOL     OW 7320   2.401   1.926   4.236
 2428SOL    HW1 7321   2.320   1.927   4.294
 2428SOL    HW2 7322   2.404   2.009   4.181
 2429SOL     OW 7323   3.296   3.050   3.765
 2429SOL    HW1 7324   3.328   2.974   3.822
 2429SOL    HW2 7325   3.204   3.077   3.795
 2430SOL     OW 7326   2.159   1.897   3.895
 2430SOL    HW1 7327   2.208   1.981   3.874
 2430SOL    HW2 7328   2.221   1.832   3.940
 2431SOL     OW 7329   2.797   2.098   4.204
 2431SOL    HW1 7330   2.749   2.139   4.126
 2431SOL    HW2 7331   2.896   2.096   4.185
 2432SOL     OW 7332   3.089   3.432   4.517
 2432SOL    HW1 7333   3.110   3.506   4.452
 2432SOL    HW2 7334   3.157   3.432   4.590
 2433SOL     OW 7335   2.321   3.014   4.465
 2433SOL    HW1 7336   2.250   2.987   4.530
 2433SOL    HW2 7337   2.295   2.986   4.372
 2434SOL     OW 7338   3.133   3.659   4.315
 2434SOL    HW1 7339   3.177   3.723   4.251
 2434SOL    HW2 7340   3.083   3.711   4.385
 2435SOL     OW 7341   2.894   2.411   3.740
 2435SOL    HW1 7342   2.853   2.493   3.701
 2435SOL    HW2 7343   2.958   2.437   3.813
 2436SOL     OW 7344   2.728   2.316   4.366
 2436SOL    HW1 7345   2.696   2.388   4.304
 2436SOL    HW2 7346   2.752   2.235   4.313
 2437SOL     OW 7347   2.879   1.901   4.477
 2437SOL    HW1 7348   2.807   1.906   4.408
 2437SOL    HW2 7349   2.855   1.832   4.546
 2438SOL     OW 7350   3.291   3.035   4.591
 2438SOL    HW1 7351   3.236   2.951   4.584
 2438SOL    HW2 7352   3.317   3.064   4.499
 2439SOL     OW 7353   3.328   2.452   4.716
 2439SOL    HW1 7354   3.298   2.357   4.723
 2439SOL    HW2 7355   3.401   2.468   4.782
 2440SOL     OW 7356   3.719   2.695   4.101
 2440SOL    HW1 7357   3.761   2.631   4.165
 2440SOL    HW2 7358   3.681   2.644   4.023
 2441SOL     OW 7359   2.350   3.247   3.898
 2441SOL    HW1 7360   2.263   3.232   3.945
 2441SOL    HW2 7361   2.333   3.273   3.803
 2442SOL     OW 7362   3.526   3.142   4.381
 2442SOL    HW1 7363   3.625   3.150   4.395
 2442SOL    HW2 7364   3.481   3.226   4.412
 2443SOL     OW 7365   3.252   2.437   3.802
 2443SOL    HW1 7366   3.198   2.416   3.883
 2443SOL    HW2 7367   3.343   2.396   3.811
 2444SOL     OW 7368   2.389   2.118   4.052
 2444SOL    HW1 7369   2.416   2.059   3.977
 2444SOL    HW2 7370   2.389   2.213   4.021
 2445SOL     OW 7371   3.500   2.961   4.803
 2445SOL    HW1 7372   3.505   3.042   4.862
 2445SOL    HW2 7373   3.414   2.963   4.752
 2446SOL     OW 7374   2.567   2.912   4.092
 2446SOL    HW1 7375   2.553   2.919   4.191
 2446SOL    HW2 7376   2.651   2.861   4.074
 2447SOL     OW 7377   2.229   2.962   4.225
 2447SOL    HW1 7378   2.222   3.045   4.169
 2447SOL    HW2 7379   2.233   2.882   4.165
 2448SOL     OW 7380   2.428   2.399   4.589
 2448SOL    HW1 7381   2.440   2.465   4.515
 2448SOL    HW2 7382   2.474   2.433   4.672
 2449SOL     OW 7383   3.114   3.210   4.112
 2449SOL    HW1 7384   3.164   3.287   4.152
 2449SOL    HW2 7385   3.019   3.212   4.144
 2450SOL     OW 7386   3.444   2.501   4.196
 2450SOL    HW1 7387   3.413   2.562   4.269
 2450SOL    HW2 7388   3.494   2.553   4.127
 2451SOL     OW 7389   2.435   2.732   4.753
 2451SOL    HW1 7390   2.479   2.821   4.744
 2451SOL    HW2 7391   2.372   2.732   4.830
 2452SOL     OW 7392   3.071   2.387   3.999
 2452SOL    HW1 7393   3.084   2.303   4.053
 2452SOL    HW2 7394   3.042   2.461   4.059
 2453SOL     OW 7395   2.169   2.075   4.955
 2453SOL    HW1 7396   2.146   2.112   5.045
 2453SOL    HW2 7397   2.139   1.980   4.949
 2454SOL     OW 7398   2.594   2.496   4.788
 2454SOL    HW1 7399   2.653   2.470   4.712
 2454SOL    HW2 7400   2.566   2.592   4.777
 2455SOL     OW 7401   2.169   1.925   4.342
 2455SOL    HW1 7402   2.158   2.019   4.375
 2455SOL    HW2 7403   2.164   1.862   4.419
 2456SOL     OW 7404   3.484   2.229   4.098
 2456SOL    HW1 7405   3.486   2.153   4.162
 2456SOL    HW2 7406   3.436   2.306   4.138
 2457SOL     OW 7407   3.402   2.136   3.849
 2457SOL    HW1 7408   3.341   2.061   3.872
 2457SOL    HW2 7409   3.424   2.188   3.932
 2458SOL     OW 7410   3.165   2.700   3.766
 2458SOL    HW1 7411   3.199   2.607   3.781
 2458SOL    HW2 7412   3.183   2.727   3.671
 2459SOL     OW 7413   2.930   3.195   4.573
 2459SOL    HW1 7414   2.937   3.111   4.518
 2459SOL    HW2 7415   2.992   3.264   4.537
 2460SOL     OW 7416   2.181   2.672   4.673
 2460SOL    HW1 7417   2.274   2.708   4.678
 2460SOL    HW2 7418   2.175   2.587   4.725
 2461SOL     OW 7419   2.201   2.371   4.730
 2461SOL    HW1 7420   2.149   2.288   4.713
 2461SOL    HW2 7421   2.278   2.376   4.666
 2462SOL     OW 7422   1.870   3.188   3.924
 2462SOL    HW1 7423   1.777   3.209   3.893
 2462SOL    HW2 7424   1.880   3.089   3.937
 2463SOL     OW 7425   1.950   3.663   4.651
 2463SOL    HW1 7426   1.908   3.577   4.624
 2463SOL    HW2 7427   2.044   3.666   4.617
 2464SOL     OW 7428   2.366   3.430   4.634
 2464SOL    HW1 7429   2.432   3.504   4.643
 2464SOL    HW2 7430   2.410   3.351   4.592
 2465SOL     OW 7431   2.864   2.658   4.962
 2465SOL    HW1 7432   2.905   2.626   5.048
 2465SOL    HW2 7433   2.768   2.631   4.959
 2466SOL     OW 7434   2.677   2.434   4.049
 2466SOL    HW1 7435   2.684   2.345   4.003
 2466SOL    HW2 7436   2.583   2.468   4.041
 2467SOL     OW 7437   2.533   2.326   4.993
 2467SOL    HW1 7438   2.499   2.237   4.963
 2467SOL    HW2 7439   2.559   2.380   4.913
 2468SOL     OW 7440   2.335   2.362   3.915
 2468SOL    HW1 7441   2.396   2.442   3.919
 2468SOL    HW2 7442   2.240   2.393   3.922
 2469SOL     OW 7443   3.164   2.717   4.033
 2469SOL    HW1 7444   3.078   2.686   4.075
 2469SOL    HW2 7445   3.160   2.703   3.934
 2470SOL     OW 7446   3.621   3.609   4.878
 2470SOL    HW1 7447   3.682   3.639   4.805
 2470SOL    HW2 7448   3.583   3.520   4.856
 2471SOL     OW 7449   1.945   3.120   4.746
 2471SOL    HW1 7450   1.940   3.119   4.846
 2471SOL    HW2 7451   1.862   3.079   4.708
 2472SOL     OW 7452   3.588   1.997   4.247
 2472SOL    HW1 7453   3.661   1.980   4.180
 2472SOL    HW2 7454   3.557   1.910   4.285
 2473SOL     OW 7455   3.250   3.435   4.201
 2473SOL    HW1 7456   3.317   3.447   4.127
 2473SOL    HW2 7457   3.210   3.524   4.224
 2474SOL     OW 7458   3.142   2.789   4.396
 2474SOL    HW1 7459   3.202   2.708   4.398
 2474SOL    HW2 7460   3.182   2.858   4.336
 2475SOL     OW 7461   2.534   3.478   3.878
 2475SOL    HW1 7462   2.543   3.488   3.779
 2475SOL    HW2 7463   2.494   3.389   3.899
 2476SOL     OW 7464   3.703   2.037   4.687
 2476SOL    HW1 7465   3.742   1.952   4.651
 2476SOL    HW2 7466   3.605   2.039   4.668
 2477SOL     OW 7467   2.125   2.188   4.444
 2477SOL    HW1 7468   2.046   2.239   4.410
 2477SOL    HW2 7469   2.116   2.173   4.542
 2478SOL     OW 7470   3.056   3.474   3.755
 2478SOL    HW1 7471   3.062   3.381   3.792
 2478SOL    HW2 7472   2.997   3.474   3.675
 2479SOL     OW 7473   2.778   2.772   4.015
 2479SOL    HW1 7474   2.841   2.810   3.947
 2479SOL    HW2 7475   2.818   2.689   4.054
 2480SOL     OW 7476   3.366   3.469   3.768
 2480SOL    HW1 7477   3.274   3.506   3.775
 2480SOL    HW2 7478   3.404   3.489   3.678
 2481SOL     OW 7479   2.901   2.960   4.420
 2481SOL    HW1 7480   2.831   2.913   4.474
 2481SOL    HW2 7481   2.960   2.892   4.377
 2482SOL     OW 7482   2.452   3.349   4.215
 2482SOL    HW1 7483   2.494   3.291   4.145
 2482SOL    HW2 7484   2.408   3.428   4.171
 2483SOL     OW 7485   2.117   3.210   4.014
 2483SOL    HW1 7486   2.021   3.211   3.987
 2483SOL    HW2 7487   2.129   3.263   4.098
 2484SOL     OW 7488   1.937   2.207   3.757
 2484SOL    HW1 7489   1.845   2.179   3.728
 2484SOL    HW2 7490   1.968   2.284   3.701
 2485SOL     OW 7491   1.934   2.028   4.042
 2485SOL    HW1 7492   1.917   2.111   3.988
 2485SOL    HW2 7493   2.024   1.991   4.020
 2486SOL     OW 7494   3.045   3.197   3.843
 2486SOL    HW1 7495   2.946   3.186   3.845
 2486SOL    HW2 7496   3.079   3.212   3.936
 2487SOL     OW 7497   3.536   2.745   4.978
 2487SOL    HW1 7498   3.509   2.656   4.941
 2487SOL    HW2 7499   3.537   2.813   4.905
 2488SOL     OW 7500   3.087   2.187   4.173
 2488SOL    HW1 7501   3.152   2.113   4.162
 2488SOL    HW2 7502   3.107   2.237   4.257
 2489SOL     OW 7503   2.456   2.607   4.376
 2489SOL    HW1 7504   2.506   2.692   4.357
 2489SOL    HW2 7505   2.368   2.609   4.328
 2490SOL     OW 7506   2.721   3.236   3.740
 2490SOL    HW1 7507   2.675   3.251   3.828
 2490SOL    HW2 7508   2.765   3.321   3.710
 2491SOL     OW 7509   2.523   3.652   4.677
 2491SOL    HW1 7510   2.477   3.740   4.664
 2491SOL    HW2 7511   2.622   3.664   4.670
 2492SOL     OW 7512   2.721   2.818   4.585
 2492SOL    HW1 7513   2.775   2.749   4.633
 2492SOL    HW2 7514   2.689   2.887   4.651
 2493SOL     OW 7515   2.945   2.846   3.811
 2493SOL    HW1 7516   2.922   2.899   3.729
 2493SOL    HW2 7517   3.026   2.790   3.792
 2494SOL     OW 7518   3.723   3.431   4.575
 2494SOL    HW1 7519   3.652   3.419   4.505
 2494SOL    HW2 7520   3.724   3.352   4.635
 2495SOL     OW 7521   1.941   3.102   4.377
 2495SOL    HW1 7522   1.940   3.055   4.465
 2495SOL    HW2 7523   2.023   3.074   4.326
 2496SOL     OW 7524   3.686   2.054   4.951
 2496SOL    HW1 7525   3.682   1.964   4.995
 2496SOL    HW2 7526   3.689   2.043   4.852
 2497SOL     OW 7527   2.290   2.286   4.244
 2497SOL    HW1 7528   2.320   2.214   4.182
 2497SOL    HW2 7529   2.251   2.246   4.327
 2498SOL     OW 7530   2.674   3.448   4.411
 2498SOL    HW1 7531   2.706   3.458   4.317
 2498SOL    HW2 7532   2.595   3.386   4.413
 2499SOL     OW 7533   2.632   3.192   4.025
 2499SOL    HW1 7534   2.586   3.105   4.042
 2499SOL    HW2 7535   2.723   3.189   4.066
 2500SOL     OW 7536   3.214   1.914   3.892
 2500SOL    HW1 7537   3.249   1.873   3.808
 2500SOL    HW2 7538   3.124   1.876   3.912
 2501SOL     OW 7539   3.162   2.315   4.415
 2501SOL    HW1 7540   3.103   2.395   4.419
 2501SOL    HW2 7541   3.177   2.280   4.508
 2502SOL     OW 7542   3.455   2.083   4.606
 2502SOL    HW1 7543   3.371   2.082   4.660
 2502SOL    HW2 7544   3.457   2.166   4.550
 2503SOL     OW 7545   1.901   2.939   4.024
 2503SOL    HW1 7546   2.000   2.928   4.015
 2503SOL    HW2 7547   1.861   2.853   4.056
 2504SOL     OW 7548   2.737   3.508   4.061
 2504SOL    HW1 7549   2.660   3.473   4.007
 2504SOL    HW2 7550   2.705   3.579   4.123
 2505SOL     OW 7551   2.092   4.352   0.113
 2505SOL    HW1 7552   1.999   4.350   0.150
 2505SOL    HW2 7553   2.093   4.313   0.021
 2506SOL     OW 7554   2.087   3.999   0.996
 2506SOL    HW1 7555   2.122   3.982   1.088
 2506SOL    HW2 7556   1.999   3.954   0.984
 2507SOL     OW 7557   1.881   4.092   0.647
 2507SOL    HW1 7558   1.799   4.135   0.686
 2507SOL    HW2 7559   1.853   4.019   0.584
 2508SOL     OW 7560   2.997   4.427   0.717
 2508SOL    HW1 7561   3.054   4.505   0.692
 2508SOL    HW2 7562   2.937   4.453   0.793
 2509SOL     OW 7563   3.617   4.331   0.231
 2509SOL    HW1 7564   3.605   4.318   0.132
 2509SOL    HW2 7565   3.587   4.250   0.280
 2510SOL     OW 7566   2.630   4.868   1.023
 2510SOL    HW1 7567   2.552   4.885   1.083
 2510SOL    HW2 7568   2.664   4.955   0.987
 2511SOL     OW 7569   2.712   4.522   1.823
 2511SOL    HW1 7570   2.708   4.598   1.888
 2511SOL    HW2 7571   2.734   4.558   1.732
 2512SOL     OW 7572   2.547   4.736   0.665
 2512SOL    HW1 7573   2.616   4.720   0.735
 2512SOL    HW2 7574   2.474   4.793   0.703
 2513SOL     OW 7575   2.300   4.116   1.499
 2513SOL    HW1 7576   2.382   4.060   1.508
 2513SOL    HW2 7577   2.219   4.058   1.503
 2514SOL     OW 7578   3.465   4.171   0.737
 2514SOL    HW1 7579   3.391   4.217   0.687
 2514SOL    HW2 7580   3.516   4.239   0.790
 2515SOL     OW 7581   2.102   4.815   0.886
 2515SOL    HW1 7582   2.116   4.731   0.938
 2515SOL    HW2 7583   2.047   4.879   0.941
 2516SOL     OW 7584   2.468   4.688   0.123
 2516SOL    HW1 7585   2.475   4.772   0.069
 2516SOL    HW2 7586   2.514   4.701   0.211
 2517SOL     OW 7587   3.456   3.838   1.480
 2517SOL    HW1 7588   3.438   3.905   1.408
 2517SOL    HW2 7589   3.453   3.884   1.569
 2518SOL     OW 7590   1.984   4.367   0.563
 2518SOL    HW1 7591   1.939   4.279   0.580
 2518SOL    HW2 7592   1.983   4.421   0.647
 2519SOL     OW 7593   3.551   4.646   0.612
 2519SOL    HW1 7594   3.646   4.617   0.620
 2519SOL    HW2 7595   3.543   4.711   0.537
 2520SOL     OW 7596   1.975   4.461   1.597
 2520SOL    HW1 7597   2.063   4.448   1.642
 2520SOL    HW2 7598   1.962   4.558   1.575
 2521SOL     OW 7599   2.671   3.728   0.502
 2521SOL    HW1 7600   2.711   3.819   0.493
 2521SOL    HW2 7601   2.571   3.736   0.508
 2522SOL     OW 7602   2.059   4.700   1.264
 2522SOL    HW1 7603   2.148   4.655   1.250
 2522SOL    HW2 7604   1.986   4.635   1.245
 2523SOL     OW 7605   3.387   4.723   0.190
 2523SOL    HW1 7606   3.324   4.647   0.203
 2523SOL    HW2 7607   3.435   4.741   0.276
 2524SOL     OW 7608   2.179   3.975   1.801
 2524SOL    HW1 7609   2.250   4.046   1.807
 2524SOL    HW2 7610   2.091   4.014   1.829
 2525SOL     OW 7611   2.460   4.453   0.270
 2525SOL    HW1 7612   2.484   4.522   0.202
 2525SOL    HW2 7613   2.382   4.486   0.324
 2526SOL     OW 7614   3.143   4.069   0.944
 2526SOL    HW1 7615   3.057   4.019   0.931
 2526SOL    HW2 7616   3.205   4.015   1.000
 2527SOL     OW 7617   2.669   4.329   1.465
 2527SOL    HW1 7618   2.622   4.326   1.554
 2527SOL    HW2 7619   2.618   4.274   1.399
 2528SOL     OW 7620   3.256   4.193   1.674
 2528SOL    HW1 7621   3.236   4.236   1.762
 2528SOL    HW2 7622   3.334   4.131   1.683
 2529SOL     OW 7623   2.835   4.614   1.572
 2529SOL    HW1 7624   2.881   4.530   1.543
 2529SOL    HW2 7625   2.779   4.648   1.497
 2530SOL     OW 7626   2.853   4.134   1.242
 2530SOL    HW1 7627   2.776   4.168   1.296
 2530SOL    HW2 7628   2.819   4.083   1.163
 2531SOL     OW 7629   2.903   4.425   0.429
 2531SOL    HW1 7630   2.929   4.421   0.525
 2531SOL    HW2 7631   2.818   4.374   0.415
 2532SOL     OW 7632   1.938   4.535   0.789
 2532SOL    HW1 7633   2.037   4.523   0.798
 2532SOL    HW2 7634   1.914   4.630   0.810
 2533SOL     OW 7635   2.727   4.072   0.195
 2533SOL    HW1 7636   2.786   4.135   0.146
 2533SOL    HW2 7637   2.746   3.978   0.166
 2534SOL     OW 7638   3.581   4.309   1.831
 2534SOL    HW1 7639   3.555   4.398   1.795
 2534SOL    HW2 7640   3.579   4.241   1.758
 2535SOL     OW 7641   2.412   3.920   0.885
 2535SOL    HW1 7642   2.407   3.915   0.985
 2535SOL    HW2 7643   2.414   4.016   0.856
 2536SOL     OW 7644   3.320   4.459   0.728
 2536SOL    HW1 7645   3.315   4.394   0.803
 2536SOL    HW2 7646   3.400   4.518   0.741
 2537SOL     OW 7647   2.064   4.009   1.498
 2537SOL    HW1 7648   1.984   4.069   1.485
 2537SOL    HW2 7649   2.054   3.960   1.584
 2538SOL     OW 7650   3.262   3.831   0.426
 2538SOL    HW1 7651   3.238   3.794   0.336
 2538SOL    HW2 7652   3.361   3.847   0.430
 2539SOL     OW 7653   2.244   4.424   0.480
 2539SOL    HW1 7654   2.289   4.334   0.477
 2539SOL    HW2 7655   2.150   4.413   0.513
 2540SOL     OW 7656   3.409   3.946   1.729
 2540SOL    HW1 7657   3.404   3.983   1.821
 2540SOL    HW2 7658   3.337   3.877   1.717
 2541SOL     OW 7659   2.476   3.846   0.117
 2541SOL    HW1 7660   2.574   3.824   0.124
 2541SOL    HW2 7661   2.445   3.829   0.024
 2542SOL     OW 7662   2.643   3.988   1.749
 2542SOL    HW1 7663   2.710   3.927   1.792
 2542SOL    HW2 7664   2.570   4.007   1.814
 2543SOL     OW 7665   3.213   4.314   1.433
 2543SOL    HW1 7666   3.241   4.271   1.518
 2543SOL    HW2 7667   3.238   4.410   1.434
 2544SOL     OW 7668   2.784   4.227   0.899
 2544SOL    HW1 7669   2.759   4.218   0.803
 2544SOL    HW2 7670   2.832   4.145   0.930
 2545SOL     OW 7671   2.401   3.788   0.512
 2545SOL    HW1 7672   2.320   3.789   0.570
 2545SOL    HW2 7673   2.404   3.871   0.457
 2546SOL     OW 7674   2.797   3.960   0.480
 2546SOL    HW1 7675   2.749   4.001   0.402
 2546SOL    HW2 7676   2.896   3.958   0.461
 2547SOL     OW 7677   2.938   4.407   1.464
 2547SOL    HW1 7678   2.858   4.346   1.467
 2547SOL    HW2 7679   3.019   4.354   1.440
 2548SOL     OW 7680   2.894   4.273   0.016
 2548SOL    HW1 7681   2.853   4.355  -0.023
 2548SOL    HW2 7682   2.958   4.299   0.089
 2549SOL     OW 7683   1.940   4.280   1.386
 2549SOL    HW1 7684   2.032   4.279   1.345
 2549SOL    HW2 7685   1.934   4.354   1.453
 2550SOL     OW 7686   2.423   3.946   1.147
 2550SOL    HW1 7687   2.461   3.862   1.184
 2550SOL    HW2 7688   2.335   3.965   1.191
 2551SOL     OW 7689   2.728   4.178   0.642
 2551SOL    HW1 7690   2.696   4.250   0.580
 2551SOL    HW2 7691   2.752   4.097   0.589
 2552SOL     OW 7692   2.879   3.763   0.753
 2552SOL    HW1 7693   2.807   3.768   0.684
 2552SOL    HW2 7694   2.855   3.694   0.822
 2553SOL     OW 7695   3.291   4.897   0.867
 2553SOL    HW1 7696   3.236   4.813   0.860
 2553SOL    HW2 7697   3.317   4.926   0.775
 2554SOL     OW 7698   3.328   4.314   0.992
 2554SOL    HW1 7699   3.298   4.219   0.999
 2554SOL    HW2 7700   3.401   4.330   1.058
 2555SOL     OW 7701   3.719   4.557   0.377
 2555SOL    HW1 7702   3.761   4.493   0.441
 2555SOL    HW2 7703   3.681   4.506   0.299
 2556SOL     OW 7704   3.252   4.299   0.078
 2556SOL    HW1 7705   3.198   4.278   0.159
 2556SOL    HW2 7706   3.343   4.258   0.087
 2557SOL     OW 7707   2.389   3.980   0.328
 2557SOL    HW1 7708   2.416   3.921   0.253
 2557SOL    HW2 7709   2.389   4.075   0.297
 2558SOL     OW 7710   3.500   4.823   1.079
 2558SOL    HW1 7711   3.505   4.904   1.138
 2558SOL    HW2 7712   3.414   4.825   1.028
 2559SOL     OW 7713   2.777   3.813   1.402
 2559SOL    HW1 7714   2.802   3.793   1.307
 2559SOL    HW2 7715   2.849   3.869   1.444
 2560SOL     OW 7716   2.272   4.537   1.251
 2560SOL    HW1 7717   2.358   4.549   1.301
 2560SOL    HW2 7718   2.230   4.450   1.278
 2561SOL     OW 7719   3.136   4.110   1.262
 2561SOL    HW1 7720   3.157   4.184   1.326
 2561SOL    HW2 7721   3.047   4.127   1.219
 2562SOL     OW 7722   2.428   4.261   0.865
 2562SOL    HW1 7723   2.440   4.327   0.791
 2562SOL    HW2 7724   2.474   4.295   0.948
 2563SOL     OW 7725   3.444   4.363   0.472
 2563SOL    HW1 7726   3.413   4.424   0.545
 2563SOL    HW2 7727   3.494   4.415   0.403
 2564SOL     OW 7728   2.264   4.475   1.598
 2564SOL    HW1 7729   2.332   4.530   1.551
 2564SOL    HW2 7730   2.304   4.387   1.625
 2565SOL     OW 7731   3.449   4.503   1.670
 2565SOL    HW1 7732   3.357   4.541   1.665
 2565SOL    HW2 7733   3.509   4.550   1.605
 2566SOL     OW 7734   2.875   3.829   1.770
 2566SOL    HW1 7735   2.881   3.914   1.718
 2566SOL    HW2 7736   2.907   3.753   1.713
 2567SOL     OW 7737   2.366   3.774   1.740
 2567SOL    HW1 7738   2.324   3.717   1.670
 2567SOL    HW2 7739   2.300   3.843   1.772
 2568SOL     OW 7740   2.435   4.594   1.029
 2568SOL    HW1 7741   2.479   4.683   1.020
 2568SOL    HW2 7742   2.372   4.594   1.106
 2569SOL     OW 7743   3.222   4.586   1.045
 2569SOL    HW1 7744   3.147   4.586   0.979
 2569SOL    HW2 7745   3.259   4.494   1.054
 2570SOL     OW 7746   3.071   4.249   0.275
 2570SOL    HW1 7747   3.084   4.165   0.329
 2570SOL    HW2 7748   3.042   4.323   0.335
 2571SOL     OW 7749   2.169   3.937   1.231
 2571SOL    HW1 7750   2.146   3.974   1.321
 2571SOL    HW2 7751   2.139   3.842   1.225
 2572SOL     OW 7752   2.594   4.358   1.064
 2572SOL    HW1 7753   2.653   4.332   0.988
 2572SOL    HW2 7754   2.566   4.454   1.053
 2573SOL     OW 7755   3.590   4.659   1.854
 2573SOL    HW1 7756   3.544   4.652   1.765
 2573SOL    HW2 7757   3.528   4.703   1.920
 2574SOL     OW 7758   2.169   3.787   0.618
 2574SOL    HW1 7759   2.158   3.881   0.651
 2574SOL    HW2 7760   2.164   3.724   0.695
 2575SOL     OW 7761   3.484   4.091   0.374
 2575SOL    HW1 7762   3.486   4.015   0.438
 2575SOL    HW2 7763   3.436   4.168   0.414
 2576SOL     OW 7764   2.885   4.490   0.966
 2576SOL    HW1 7765   2.900   4.511   1.062
 2576SOL    HW2 7766   2.855   4.395   0.957
 2577SOL     OW 7767   2.212   4.622   1.804
 2577SOL    HW1 7768   2.288   4.666   1.852
 2577SOL    HW2 7769   2.247   4.575   1.722
 2578SOL     OW 7770   3.402   3.998   0.125
 2578SOL    HW1 7771   3.341   3.923   0.148
 2578SOL    HW2 7772   3.424   4.050   0.208
 2579SOL     OW 7773   3.165   4.562   0.042
 2579SOL    HW1 7774   3.199   4.469   0.057
 2579SOL    HW2 7775   3.183   4.589  -0.053
 2580SOL     OW 7776   2.181   4.534   0.949
 2580SOL    HW1 7777   2.274   4.570   0.954
 2580SOL    HW2 7778   2.175   4.449   1.001
 2581SOL     OW 7779   2.201   4.233   1.006
 2581SOL    HW1 7780   2.149   4.150   0.989
 2581SOL    HW2 7781   2.278   4.238   0.942
 2582SOL     OW 7782   3.000   4.104   1.678
 2582SOL    HW1 7783   2.955   4.167   1.742
 2582SOL    HW2 7784   3.093   4.135   1.661
 2583SOL     OW 7785   3.022   3.931   1.477
 2583SOL    HW1 7786   3.022   3.995   1.554
 2583SOL    HW2 7787   3.050   3.979   1.394
 2584SOL     OW 7788   2.864   4.520   1.238
 2584SOL    HW1 7789   2.905   4.488   1.324
 2584SOL    HW2 7790   2.768   4.493   1.235
 2585SOL     OW 7791   1.902   4.268   1.114
 2585SOL    HW1 7792   1.987   4.235   1.073
 2585SOL    HW2 7793   1.915   4.283   1.212
 2586SOL     OW 7794   2.051   4.244   1.722
 2586SOL    HW1 7795   2.110   4.204   1.652
 2586SOL    HW2 7796   1.993   4.315   1.681
 2587SOL     OW 7797   3.231   4.674   1.660
 2587SOL    HW1 7798   3.270   4.763   1.680
 2587SOL    HW2 7799   3.241   4.654   1.563
 2588SOL     OW 7800   2.677   4.296   0.325
 2588SOL    HW1 7801   2.684   4.207   0.279
 2588SOL    HW2 7802   2.583   4.330   0.317
 2589SOL     OW 7803   3.519   4.328   1.206
 2589SOL    HW1 7804   3.481   4.259   1.268
 2589SOL    HW2 7805   3.601   4.292   1.162
 2590SOL     OW 7806   2.533   4.188   1.269
 2590SOL    HW1 7807   2.499   4.099   1.239
 2590SOL    HW2 7808   2.559   4.242   1.189
 2591SOL     OW 7809   2.335   4.224   0.191
 2591SOL    HW1 7810   2.396   4.304   0.195
 2591SOL    HW2 7811   2.240   4.255   0.198
 2592SOL     OW 7812   2.021   4.861   1.466
 2592SOL    HW1 7813   2.043   4.800   1.542
 2592SOL    HW2 7814   2.031   4.812   1.380
 2593SOL     OW 7815   3.209   4.783   1.234
 2593SOL    HW1 7816   3.233   4.720   1.160
 2593SOL    HW2 7817   3.119   4.823   1.216
 2594SOL     OW 7818   3.164   4.579   0.309
 2594SOL    HW1 7819   3.078   4.548   0.351
 2594SOL    HW2 7820   3.160   4.565   0.210
 2595SOL     OW 7821   2.765   3.810   0.133
 2595SOL    HW1 7822   2.816   3.811   0.047
 2595SOL    HW2 7823   2.821   3.768   0.204
 2596SOL     OW 7824   3.588   3.859   0.523
 2596SOL    HW1 7825   3.661   3.842   0.456
 2596SOL    HW2 7826   3.557   3.772   0.561
 2597SOL     OW 7827   3.142   4.651   0.672
 2597SOL    HW1 7828   3.202   4.570   0.674
 2597SOL    HW2 7829   3.182   4.720   0.612
 2598SOL     OW 7830   3.703   3.899   0.963
 2598SOL    HW1 7831   3.742   3.814   0.927
 2598SOL    HW2 7832   3.605   3.901   0.944
 2599SOL     OW 7833   2.125   4.050   0.720
 2599SOL    HW1 7834   2.046   4.101   0.686
 2599SOL    HW2 7835   2.116   4.035   0.818
 2600SOL     OW 7836   2.778   4.634   0.291
 2600SOL    HW1 7837   2.841   4.672   0.223
 2600SOL    HW2 7838   2.818   4.551   0.330
 2601SOL     OW 7839   2.876   3.960   0.971
 2601SOL    HW1 7840   2.868   3.924   0.878
 2601SOL    HW2 7841   2.874   3.884   1.036
 2602SOL     OW 7842   3.571   4.109   1.381
 2602SOL    HW1 7843   3.644   4.178   1.385
 2602SOL    HW2 7844   3.599   4.034   1.322
 2603SOL     OW 7845   1.967   4.737   1.726
 2603SOL    HW1 7846   1.890   4.704   1.780
 2603SOL    HW2 7847   2.052   4.707   1.768
 2604SOL     OW 7848   2.534   3.927   1.489
 2604SOL    HW1 7849   2.624   3.911   1.449
 2604SOL    HW2 7850   2.542   3.932   1.588
 2605SOL     OW 7851   1.937   4.069   0.033
 2605SOL    HW1 7852   1.845   4.041   0.004
 2605SOL    HW2 7853   1.968   4.146  -0.023
 2606SOL     OW 7854   3.302   4.580   1.398
 2606SOL    HW1 7855   3.245   4.632   1.335
 2606SOL    HW2 7856   3.398   4.592   1.374
 2607SOL     OW 7857   1.934   3.890   0.318
 2607SOL    HW1 7858   1.917   3.973   0.264
 2607SOL    HW2 7859   2.024   3.853   0.296
 2608SOL     OW 7860   3.045   5.059   0.119
 2608SOL    HW1 7861   2.946   5.048   0.121
 2608SOL    HW2 7862   3.079   5.074   0.212
 2609SOL     OW 7863   2.475   4.566   1.431
 2609SOL    HW1 7864   2.531   4.647   1.414
 2609SOL    HW2 7865   2.534   4.486   1.434
 2610SOL     OW 7866   2.578   4.289   1.708
 2610SOL    HW1 7867   2.597   4.354   1.782
 2610SOL    HW2 7868   2.638   4.209   1.717
 2611SOL     OW 7869   3.536   4.607   1.254
 2611SOL    HW1 7870   3.509   4.518   1.217
 2611SOL    HW2 7871   3.537   4.675   1.181
 2612SOL     OW 7872   3.087   4.049   0.449
 2612SOL    HW1 7873   3.152   3.975   0.438
 2612SOL    HW2 7874   3.107   4.099   0.533
 2613SOL     OW 7875   2.456   4.469   0.652
 2613SOL    HW1 7876   2.506   4.554   0.633
 2613SOL    HW2 7877   2.368   4.471   0.604
 2614SOL     OW 7878   3.639   4.066   1.642
 2614SOL    HW1 7879   3.622   4.097   1.548
 2614SOL    HW2 7880   3.555   4.029   1.680
 2615SOL     OW 7881   3.592   4.658   1.517
 2615SOL    HW1 7882   3.630   4.749   1.532
 2615SOL    HW2 7883   3.584   4.641   1.418
 2616SOL     OW 7884   2.721   4.680   0.861
 2616SOL    HW1 7885   2.775   4.611   0.909
 2616SOL    HW2 7886   2.689   4.749   0.927
 2617SOL     OW 7887   2.945   4.708   0.087
 2617SOL    HW1 7888   2.922   4.761   0.005
 2617SOL    HW2 7889   3.026   4.652   0.068
 2618SOL     OW 7890   1.941   4.964   0.653
 2618SOL    HW1 7891   1.940   4.917   0.741
 2618SOL    HW2 7892   2.023   4.936   0.602
 2619SOL     OW 7893   3.686   3.916   1.227
 2619SOL    HW1 7894   3.682   3.826   1.271
 2619SOL    HW2 7895   3.689   3.905   1.128
 2620SOL     OW 7896   2.290   4.148   0.520
 2620SOL    HW1 7897   2.320   4.076   0.458
 2620SOL    HW2 7898   2.251   4.108   0.603
 2621SOL     OW 7899   2.179   4.271   1.280
 2621SOL    HW1 7900   2.217   4.212   1.352
 2621SOL    HW2 7901   2.219   4.245   1.192
 2622SOL     OW 7902   3.286   3.938   1.112
 2622SOL    HW1 7903   3.338   3.873   1.167
 2622SOL    HW2 7904   3.237   4.001   1.173
 2623SOL     OW 7905   2.863   3.758   1.154
 2623SOL    HW1 7906   2.800   3.686   1.123
 2623SOL    HW2 7907   2.956   3.722   1.154
 2624SOL     OW 7908   3.214   3.776   0.168
 2624SOL    HW1 7909   3.249   3.735   0.084
 2624SOL    HW2 7910   3.124   3.738   0.188
 2625SOL     OW 7911   3.162   4.177   0.691
 2625SOL    HW1 7912   3.103   4.257   0.695
 2625SOL    HW2 7913   3.177   4.142   0.784
 2626SOL     OW 7914   3.455   3.945   0.882
 2626SOL    HW1 7915   3.371   3.944   0.936
 2626SOL    HW2 7916   3.457   4.028   0.826
 2627SOL     OW 7917   1.901   4.801   0.300
 2627SOL    HW1 7918   2.000   4.790   0.291
 2627SOL    HW2 7919   1.861   4.715   0.332
 2628SOL     OW 7920   2.092   4.352   1.975
 2628SOL    HW1 7921   1.999   4.350   2.012
 2628SOL    HW2 7922   2.093   4.313   1.883
 2629SOL     OW 7923   2.087   3.999   2.858
 2629SOL    HW1 7924   2.122   3.982   2.950
 2629SOL    HW2 7925   1.999   3.954   2.846
 2630SOL     OW 7926   1.881   4.092   2.509
 2630SOL    HW1 7927   1.799   4.135   2.548
 2630SOL    HW2 7928   1.853   4.019   2.446
 2631SOL     OW 7929   2.997   4.427   2.579
 2631SOL    HW1 7930   3.054   4.505   2.554
 2631SOL    HW2 7931   2.937   4.453   2.655
 2632SOL     OW 7932   3.617   4.331   2.093
 2632SOL    HW1 7933   3.605   4.318   1.994
 2632SOL    HW2 7934   3.587   4.250   2.142
 2633SOL     OW 7935   2.630   4.868   2.885
 2633SOL    HW1 7936   2.552   4.885   2.945
 2633SOL    HW2 7937   2.664   4.955   2.849
 2634SOL     OW 7938   2.712   4.522   3.685
 2634SOL    HW1 7939   2.708   4.598   3.750
 2634SOL    HW2 7940   2.734   4.558   3.594
 2635SOL     OW 7941   2.547   4.736   2.527
 2635SOL    HW1 7942   2.616   4.720   2.597
 2635SOL    HW2 7943   2.474   4.793   2.565
 2636SOL     OW 7944   2.300   4.116   3.361
 2636SOL    HW1 7945   2.382   4.060   3.370
 2636SOL    HW2 7946   2.219   4.058   3.365
 2637SOL     OW 7947   3.465   4.171   2.599
 2637SOL    HW1 7948   3.391   4.217   2.549
 2637SOL    HW2 7949   3.516   4.239   2.652
 2638SOL     OW 7950   2.102   4.815   2.748
 2638SOL    HW1 7951   2.116   4.731   2.800
 2638SOL    HW2 7952   2.047   4.879   2.803
 2639SOL     OW 7953   2.468   4.688   1.985
 2639SOL    HW1 7954   2.475   4.772   1.931
 2639SOL    HW2 7955   2.514   4.701   2.073
 2640SOL     OW 7956   3.456   3.838   3.342
 2640SOL    HW1 7957   3.438   3.905   3.270
 2640SOL    HW2 7958   3.453   3.884   3.431
 2641SOL     OW 7959   1.984   4.367   2.425
 2641SOL    HW1 7960   1.939   4.279   2.442
 2641SOL    HW2 7961   1.983   4.421   2.509
 2642SOL     OW 7962   3.551   4.646   2.474
 2642SOL    HW1 7963   3.646   4.617   2.482
 2642SOL    HW2 7964   3.543   4.711   2.399
 2643SOL     OW 7965   1.975   4.461   3.459
 2643SOL    HW1 7966   2.063   4.448   3.504
 2643SOL    HW2 7967   1.962   4.558   3.437
 2644SOL     OW 7968   2.671   3.728   2.364
 2644SOL    HW1 7969   2.711   3.819   2.355
 2644SOL    HW2 7970   2.571   3.736   2.370
 2645SOL     OW 7971   2.059   4.700   3.126
 2645SOL    HW1 7972   2.148   4.655   3.112
 2645SOL    HW2 7973   1.986   4.635   3.107
 2646SOL     OW 7974   3.387   4.723   2.052
 2646SOL    HW1 7975   3.324   4.647   2.065
 2646SOL    HW2 7976   3.435   4.741   2.138
 2647SOL     OW 7977   2.179   3.975   3.663
 2647SOL    HW1 7978   2.250   4.046   3.669
 2647SOL    HW2 7979   2.091   4.014   3.691
 2648SOL     OW 7980   2.460   4.453   2.132
 2648SOL    HW1 7981   2.484   4.522   2.064
 2648SOL    HW2 7982   2.382   4.486   2.186
 2649SOL     OW 7983   3.143   4.069   2.806
 2649SOL    HW1 7984   3.057   4.019   2.793
 2649SOL    HW2 7985   3.205   4.015   2.862
 2650SOL     OW 7986   2.669   4.329   3.327
 2650SOL    HW1 7987   2.622   4.326   3.416
 2650SOL    HW2 7988   2.618   4.274   3.261
 2651SOL     OW 7989   3.256   4.193   3.536
 2651SOL    HW1 7990   3.236   4.236   3.624
 2651SOL    HW2 7991   3.334   4.131   3.545
 2652SOL     OW 7992   2.835   4.614   3.434
 2652SOL    HW1 7993   2.881   4.530   3.405
 2652SOL    HW2 7994   2.779   4.648   3.359
 2653SOL     OW 7995   2.853   4.134   3.104
 2653SOL    HW1 7996   2.776   4.168   3.158
 2653SOL    HW2 7997   2.819   4.083   3.025
 2654SOL     OW 7998   2.903   4.425   2.291
 2654SOL    HW1 7999   2.929   4.421   2.387
 2654SOL    HW2 8000   2.818   4.374   2.277
 2655SOL     OW 8001   1.938   4.535   2.651
 2655SOL    HW1 8002   2.037   4.523   2.660
 2655SOL    HW2 8003   1.914   4.630   2.672
 2656SOL     OW 8004   2.727   4.072   2.057
 2656SOL    HW1 8005   2.786   4.135   2.008
 2656SOL    HW2 8006   2.746   3.978   2.028
 2657SOL     OW 8007   3.581   4.309   3.693
 2657SOL    HW1 8008   3.555   4.398   3.657
 2657SOL    HW2 8009   3.579   4.241   3.620
 2658SOL     OW 8010   2.412   3.920   2.747
 2658SOL    HW1 8011   2.407   3.915   2.847
 2658SOL    HW2 8012   2.414   4.016   2.718
 2659SOL     OW 8013   3.320   4.459   2.590
 2659SOL    HW1 8014   3.315   4.394   2.665
 2659SOL    HW2 8015   3.400   4.518   2.603
 2660SOL     OW 8016   2.064   4.009   3.360
 2660SOL    HW1 8017   1.984   4.069   3.347
 2660SOL    HW2 8018   2.054   3.960   3.446
 2661SOL     OW 8019   3.262   3.831   2.288
 2661SOL    HW1 8020   3.238   3.794   2.198
 2661SOL    HW2 8021   3.361   3.847   2.292
 2662SOL     OW 8022   2.244   4.424   2.342
 2662SOL    HW1 8023   2.289   4.334   2.339
 2662SOL    HW2 8024   2.150   4.413   2.375
 2663SOL     OW 8025   3.409   3.946   3.591
 2663SOL    HW1 8026   3.404   3.983   3.683
 2663SOL    HW2 8027   3.337   3.877   3.579
 2664SOL     OW 8028   2.476   3.846   1.979
 2664SOL    HW1 8029   2.574   3.824   1.986
 2664SOL    HW2 8030   2.445   3.829   1.886
 2665SOL     OW 8031   2.643   3.988   3.611
 2665SOL    HW1 8032   2.710   3.927   3.654
 2665SOL    HW2 8033   2.570   4.007   3.676
 2666SOL     OW 8034   3.213   4.314   3.295
 2666SOL    HW1 8035   3.241   4.271   3.380
 2666SOL    HW2 8036   3.238   4.410   3.296
 2667SOL     OW 8037   2.784   4.227   2.761
 2667SOL    HW1 8038   2.759   4.218   2.665
 2667SOL    HW2 8039   2.832   4.145   2.792
 2668SOL     OW 8040   2.401   3.788   2.374
 2668SOL    HW1 8041   2.320   3.789   2.432
 2668SOL    HW2 8042   2.404   3.871   2.319
 2669SOL     OW 8043   2.159   3.759   2.033
 2669SOL    HW1 8044   2.208   3.843   2.012
 2669SOL    HW2 8045   2.221   3.694   2.078
 2670SOL     OW 8046   2.797   3.960   2.342
 2670SOL    HW1 8047   2.749   4.001   2.264
 2670SOL    HW2 8048   2.896   3.958   2.323
 2671SOL     OW 8049   2.938   4.407   3.326
 2671SOL    HW1 8050   2.858   4.346   3.329
 2671SOL    HW2 8051   3.019   4.354   3.302
 2672SOL     OW 8052   2.894   4.273   1.878
 2672SOL    HW1 8053   2.853   4.355   1.839
 2672SOL    HW2 8054   2.958   4.299   1.951
 2673SOL     OW 8055   1.940   4.280   3.248
 2673SOL    HW1 8056   2.032   4.279   3.207
 2673SOL    HW2 8057   1.934   4.354   3.315
 2674SOL     OW 8058   2.423   3.946   3.009
 2674SOL    HW1 8059   2.461   3.862   3.046
 2674SOL    HW2 8060   2.335   3.965   3.053
 2675SOL     OW 8061   2.728   4.178   2.504
 2675SOL    HW1 8062   2.696   4.250   2.442
 2675SOL    HW2 8063   2.752   4.097   2.451
 2676SOL     OW 8064   2.879   3.763   2.615
 2676SOL    HW1 8065   2.807   3.768   2.546
 2676SOL    HW2 8066   2.855   3.694   2.684
 2677SOL     OW 8067   3.291   4.897   2.729
 2677SOL    HW1 8068   3.236   4.813   2.722
 2677SOL    HW2 8069   3.317   4.926   2.637
 2678SOL     OW 8070   3.328   4.314   2.854
 2678SOL    HW1 8071   3.298   4.219   2.861
 2678SOL    HW2 8072   3.401   4.330   2.920
 2679SOL     OW 8073   3.719   4.557   2.239
 2679SOL    HW1 8074   3.761   4.493   2.303
 2679SOL    HW2 8075   3.681   4.506   2.161
 2680SOL     OW 8076   3.252   4.299   1.940
 2680SOL    HW1 8077   3.198   4.278   2.021
 2680SOL    HW2 8078   3.343   4.258   1.949
 2681SOL     OW 8079   2.389   3.980   2.190
 2681SOL    HW1 8080   2.416   3.921   2.115
 2681SOL    HW2 8081   2.389   4.075   2.159
 2682SOL     OW 8082   3.500   4.823   2.941
 2682SOL    HW1 8083   3.505   4.904   3.000
 2682SOL    HW2 8084   3.414   4.825   2.890
 2683SOL     OW 8085   2.777   3.813   3.264
 2683SOL    HW1 8086   2.802   3.793   3.169
 2683SOL    HW2 8087   2.849   3.869   3.306
 2684SOL     OW 8088   2.272   4.537   3.113
 2684SOL    HW1 8089   2.358   4.549   3.163
 2684SOL    HW2 8090   2.230   4.450   3.140
 2685SOL     OW 8091   3.136   4.110   3.124
 2685SOL    HW1 8092   3.157   4.184   3.188
 2685SOL    HW2 8093   3.047   4.127   3.081
 2686SOL     OW 8094   2.428   4.261   2.727
 2686SOL    HW1 8095   2.440   4.327   2.653
 2686SOL    HW2 8096   2.474   4.295   2.810
 2687SOL     OW 8097   3.444   4.363   2.334
 2687SOL    HW1 8098   3.413   4.424   2.407
 2687SOL    HW2 8099   3.494   4.415   2.265
 2688SOL     OW 8100   2.264   4.475   3.460
 2688SOL    HW1 8101   2.332   4.530   3.413
 2688SOL    HW2 8102   2.304   4.387   3.487
 2689SOL     OW 8103   3.449   4.503   3.532
 2689SOL    HW1 8104   3.357   4.541   3.527
 2689SOL    HW2 8105   3.509   4.550   3.467
 2690SOL     OW 8106   2.875   3.829   3.632
 2690SOL    HW1 8107   2.881   3.914   3.580
 2690SOL    HW2 8108   2.907   3.753   3.575
 2691SOL     OW 8109   2.366   3.774   3.602
 2691SOL    HW1 8110   2.324   3.717   3.532
 2691SOL    HW2 8111   2.300   3.843   3.634
 2692SOL     OW 8112   2.435   4.594   2.891
 2692SOL    HW1 8113   2.479   4.683   2.882
 2692SOL    HW2 8114   2.372   4.594   2.968
 2693SOL     OW 8115   3.222   4.586   2.907
 2693SOL    HW1 8116   3.147   4.586   2.841
 2693SOL    HW2 8117   3.259   4.494   2.916
 2694SOL     OW 8118   3.071   4.249   2.137
 2694SOL    HW1 8119   3.084   4.165   2.191
 2694SOL    HW2 8120   3.042   4.323   2.197
 2695SOL     OW 8121   2.169   3.937   3.093
 2695SOL    HW1 8122   2.146   3.974   3.183
 2695SOL    HW2 8123   2.139   3.842   3.087
 2696SOL     OW 8124   2.594   4.358   2.926
 2696SOL    HW1 8125   2.653   4.332   2.850
 2696SOL    HW2 8126   2.566   4.454   2.915
 2697SOL     OW 8127   3.590   4.659   3.716
 2697SOL    HW1 8128   3.544   4.652   3.627
 2697SOL    HW2 8129   3.528   4.703   3.782
 2698SOL     OW 8130   2.169   3.787   2.480
 2698SOL    HW1 8131   2.158   3.881   2.513
 2698SOL    HW2 8132   2.164   3.724   2.557
 2699SOL     OW 8133   3.484   4.091   2.236
 2699SOL    HW1 8134   3.486   4.015   2.300
 2699SOL    HW2 8135   3.436   4.168   2.276
 2700SOL     OW 8136   2.885   4.490   2.828
 2700SOL    HW1 8137   2.900   4.511   2.924
 2700SOL    HW2 8138   2.855   4.395   2.819
 2701SOL     OW 8139   2.212   4.622   3.666
 2701SOL    HW1 8140   2.288   4.666   3.714
 2701SOL    HW2 8141   2.247   4.575   3.584
 2702SOL     OW 8142   3.402   3.998   1.987
 2702SOL    HW1 8143   3.341   3.923   2.010
 2702SOL    HW2 8144   3.424   4.050   2.070
 2703SOL     OW 8145   3.165   4.562   1.904
 2703SOL    HW1 8146   3.199   4.469   1.919
 2703SOL    HW2 8147   3.183   4.589   1.809
 2704SOL     OW 8148   2.181   4.534   2.811
 2704SOL    HW1 8149   2.274   4.570   2.816
 2704SOL    HW2 8150   2.175   4.449   2.863
 2705SOL     OW 8151   2.201   4.233   2.868
 2705SOL    HW1 8152   2.149   4.150   2.851
 2705SOL    HW2 8153   2.278   4.238   2.804
 2706SOL     OW 8154   3.000   4.104   3.540
 2706SOL    HW1 8155   2.955   4.167   3.604
 2706SOL    HW2 8156   3.093   4.135   3.523
 2707SOL     OW 8157   3.022   3.931   3.339
 2707SOL    HW1 8158   3.022   3.995   3.416
 2707SOL    HW2 8159   3.050   3.979   3.256
 2708SOL     OW 8160   2.864   4.520   3.100
 2708SOL    HW1 8161   2.905   4.488   3.186
 2708SOL    HW2 8162   2.768   4.493   3.097
 2709SOL     OW 8163   1.902   4.268   2.976
 2709SOL    HW1 8164   1.987   4.235   2.935
 2709SOL    HW2 8165   1.915   4.283   3.074
 2710SOL     OW 8166   2.051   4.244   3.584
 2710SOL    HW1 8167   2.110   4.204   3.514
 2710SOL    HW2 8168   1.993   4.315   3.543
 2711SOL     OW 8169   3.231   4.674   3.522
 2711SOL    HW1 8170   3.270   4.763   3.542
 2711SOL    HW2 8171   3.241   4.654   3.425
 2712SOL     OW 8172   2.677   4.296   2.187
 2712SOL    HW1 8173   2.684   4.207   2.141
 2712SOL    HW2 8174   2.583   4.330   2.179
 2713SOL     OW 8175   3.519   4.328   3.068
 2713SOL    HW1 8176   3.481   4.259   3.130
 2713SOL    HW2 8177   3.601   4.292   3.024
 2714SOL     OW 8178   2.533   4.188   3.131
 2714SOL    HW1 8179   2.499   4.099   3.101
 2714SOL    HW2 8180   2.559   4.242   3.051
 2715SOL     OW 8181   2.335   4.224   2.053
 2715SOL    HW1 8182   2.396   4.304   2.057
 2715SOL    HW2 8183   2.240   4.255   2.060
 2716SOL     OW 8184   2.021   4.861   3.328
 2716SOL    HW1 8185   2.043   4.800   3.404
 2716SOL    HW2 8186   2.031   4.812   3.242
 2717SOL     OW 8187   3.209   4.783   3.096
 2717SOL    HW1 8188   3.233   4.720   3.022
 2717SOL    HW2 8189   3.119   4.823   3.078
 2718SOL     OW 8190   3.164   4.579   2.171
 2718SOL    HW1 8191   3.078   4.548   2.213
 2718SOL    HW2 8192   3.160   4.565   2.072
 2719SOL     OW 8193   3.588   3.859   2.385
 2719SOL    HW1 8194   3.661   3.842   2.318
 2719SOL    HW2 8195   3.557   3.772   2.423
 2720SOL     OW 8196   3.142   4.651   2.534
 2720SOL    HW1 8197   3.202   4.570   2.536
 2720SOL    HW2 8198   3.182   4.720   2.474
 2721SOL     OW 8199   3.703   3.899   2.825
 2721SOL    HW1 8200   3.742   3.814   2.789
 2721SOL    HW2 8201   3.605   3.901   2.806
 2722SOL     OW 8202   2.125   4.050   2.582
 2722SOL    HW1 8203   2.046   4.101   2.548
 2722SOL    HW2 8204   2.116   4.035   2.680
 2723SOL     OW 8205   2.778   4.634   2.153
 2723SOL    HW1 8206   2.841   4.672   2.085
 2723SOL    HW2 8207   2.818   4.551   2.192
 2724SOL     OW 8208   2.876   3.960   2.833
 2724SOL    HW1 8209   2.868   3.924   2.740
 2724SOL    HW2 8210   2.874   3.884   2.898
 2725SOL     OW 8211   3.571   4.109   3.243
 2725SOL    HW1 8212   3.644   4.178   3.247
 2725SOL    HW2 8213   3.599   4.034   3.184
 2726SOL     OW 8214   1.967   4.737   3.588
 2726SOL    HW1 8215   1.890   4.704   3.642
 2726SOL    HW2 8216   2.052   4.707   3.630
 2727SOL     OW 8217   2.534   3.927   3.351
 2727SOL    HW1 8218   2.624   3.911   3.311
 2727SOL    HW2 8219   2.542   3.932   3.450
 2728SOL     OW 8220   1.937   4.069   1.895
 2728SOL    HW1 8221   1.845   4.041   1.866
 2728SOL    HW2 8222   1.968   4.146   1.839
 2729SOL     OW 8223   3.302   4.580   3.260
 2729SOL    HW1 8224   3.245   4.632   3.197
 2729SOL    HW2 8225   3.398   4.592   3.236
 2730SOL     OW 8226   1.934   3.890   2.180
 2730SOL    HW1 8227   1.917   3.973   2.126
 2730SOL    HW2 8228   2.024   3.853   2.158
 2731SOL     OW 8229   3.045   5.059   1.981
 2731SOL    HW1 8230   2.946   5.048   1.983
 2731SOL    HW2 8231   3.079   5.074   2.074
 2732SOL     OW 8232   2.475   4.566   3.293
 2732SOL    HW1 8233   2.531   4.647   3.276
 2732SOL    HW2 8234   2.534   4.486   3.296
 2733SOL     OW 8235   2.578   4.289   3.570
 2733SOL    HW1 8236   2.597   4.354   3.644
 2733SOL    HW2 8237   2.638   4.209   3.579
 2734SOL     OW 8238   3.536   4.607   3.116
 2734SOL    HW1 8239   3.509   4.518   3.079
 2734SOL    HW2 8240   3.537   4.675   3.043
 2735SOL     OW 8241   3.087   4.049   2.311
 2735SOL    HW1 8242   3.152   3.975   2.300
 2735SOL    HW2 8243   3.107   4.099   2.395
 2736SOL     OW 8244   2.456   4.469   2.514
 2736SOL    HW1 8245   2.506   4.554   2.495
 2736SOL    HW2 8246   2.368   4.471   2.466
 2737SOL     OW 8247   3.639   4.066   3.504
 2737SOL    HW1 8248   3.622   4.097   3.410
 2737SOL    HW2 8249   3.555   4.029   3.542
 2738SOL     OW 8250   3.592   4.658   3.379
 2738SOL    HW1 8251   3.630   4.749   3.394
 2738SOL    HW2 8252   3.584   4.641   3.280
 2739SOL     OW 8253   2.721   4.680   2.723
 2739SOL    HW1 8254   2.775   4.611   2.771
 2739SOL    HW2 8255   2.689   4.749   2.789
 2740SOL     OW 8256   2.945   4.708   1.949
 2740SOL    HW1 8257   2.922   4.761   1.867
 2740SOL    HW2 8258   3.026   4.652   1.930
 2741SOL     OW 8259   1.941   4.964   2.515
 2741SOL    HW1 8260   1.940   4.917   2.603
 2741SOL    HW2 8261   2.023   4.936   2.464
 2742SOL     OW 8262   3.686   3.916   3.089
 2742SOL    HW1 8263   3.682   3.826   3.133
 2742SOL    HW2 8264   3.689   3.905   2.990
 2743SOL     OW 8265   2.290   4.148   2.382
 2743SOL    HW1 8266   2.320   4.076   2.320
 2743SOL    HW2 8267   2.251   4.108   2.465
 2744SOL     OW 8268   2.179   4.271   3.142
 2744SOL    HW1 8269   2.217   4.212   3.214
 2744SOL    HW2 8270   2.219   4.245   3.054
 2745SOL     OW 8271   3.286   3.938   2.974
 2745SOL    HW1 8272   3.338   3.873   3.029
 2745SOL    HW2 8273   3.237   4.001   3.035
 2746SOL     OW 8274   2.863   3.758   3.016
 2746SOL    HW1 8275   2.800   3.686   2.985
 2746SOL    HW2 8276   2.956   3.722   3.016
 2747SOL     OW 8277   3.214   3.776   2.030
 2747SOL    HW1 8278   3.249   3.735   1.946
 2747SOL    HW2 8279   3.124   3.738   2.050
 2748SOL     OW 8280   3.162   4.177   2.553
 2748SOL    HW1 8281   3.103   4.257   2.557
 2748SOL    HW2 8282   3.177   4.142   2.646
 2749SOL     OW 8283   3.455   3.945   2.744
 2749SOL    HW1 8284   3.371   3.944   2.798
 2749SOL    HW2 8285   3.457   4.028   2.688
 2750SOL     OW 8286   1.901   4.801   2.162
 2750SOL    HW1 8287   2.000   4.790   2.153
 2750SOL    HW2 8288   1.861   4.715   2.194
 2751SOL     OW 8289   2.092   4.352   3.837
 2751SOL    HW1 8290   1.999   4.350   3.874
 2751SOL    HW2 8291   2.093   4.313   3.745
 2752SOL     OW 8292   2.087   3.999   4.720
 2752SOL    HW1 8293   2.122   3.982   4.812
 2752SOL    HW2 8294   1.999   3.954   4.708
 2753SOL     OW 8295   1.881   4.092   4.371
 2753SOL    HW1 8296   1.799   4.135   4.410
 2753SOL    HW2 8297   1.853   4.019   4.308
 2754SOL     OW 8298   2.997   4.427   4.441
 2754SOL    HW1 8299   3.054   4.505   4.416
 2754SOL    HW2 8300   2.937   4.453   4.517
 2755SOL     OW 8301   3.617   4.331   3.955
 2755SOL    HW1 8302   3.605   4.318   3.856
 2755SOL    HW2 8303   3.587   4.250   4.004
 2756SOL     OW 8304   2.547   4.736   4.389
 2756SOL    HW1 8305   2.616   4.720   4.459
 2756SOL    HW2 8306   2.474   4.793   4.427
 2757SOL     OW 8307   3.465   4.171   4.461
 2757SOL    HW1 8308   3.391   4.217   4.411
 2757SOL    HW2 8309   3.516   4.239   4.514
 2758SOL     OW 8310   2.102   4.815   4.610
 2758SOL    HW1 8311   2.116   4.731   4.662
 2758SOL    HW2 8312   2.047   4.879   4.665
 2759SOL     OW 8313   2.468   4.688   3.847
 2759SOL    HW1 8314   2.475   4.772   3.793
 2759SOL    HW2 8315   2.514   4.701   3.935
 2760SOL     OW 8316   1.984   4.367   4.287
 2760SOL    HW1 8317   1.939   4.279   4.304
 2760SOL    HW2 8318   1.983   4.421   4.371
 2761SOL     OW 8319   3.551   4.646   4.336
 2761SOL    HW1 8320   3.646   4.617   4.344
 2761SOL    HW2 8321   3.543   4.711   4.261
 2762SOL     OW 8322   2.671   3.728   4.226
 2762SOL    HW1 8323   2.711   3.819   4.217
 2762SOL    HW2 8324   2.571   3.736   4.232
 2763SOL     OW 8325   2.059   4.700   4.988
 2763SOL    HW1 8326   2.148   4.655   4.974
 2763SOL    HW2 8327   1.986   4.635   4.969
 2764SOL     OW 8328   3.387   4.723   3.914
 2764SOL    HW1 8329   3.324   4.647   3.927
 2764SOL    HW2 8330   3.435   4.741   4.000
 2765SOL     OW 8331   2.460   4.453   3.994
 2765SOL    HW1 8332   2.484   4.522   3.926
 2765SOL    HW2 8333   2.382   4.486   4.048
 2766SOL     OW 8334   3.143   4.069   4.668
 2766SOL    HW1 8335   3.057   4.019   4.655
 2766SOL    HW2 8336   3.205   4.015   4.724
 2767SOL     OW 8337   2.903   4.425   4.153
 2767SOL    HW1 8338   2.929   4.421   4.249
 2767SOL    HW2 8339   2.818   4.374   4.139
 2768SOL     OW 8340   1.938   4.535   4.513
 2768SOL    HW1 8341   2.037   4.523   4.522
 2768SOL    HW2 8342   1.914   4.630   4.534
 2769SOL     OW 8343   2.727   4.072   3.919
 2769SOL    HW1 8344   2.786   4.135   3.870
 2769SOL    HW2 8345   2.746   3.978   3.890
 2770SOL     OW 8346   2.412   3.920   4.609
 2770SOL    HW1 8347   2.407   3.915   4.709
 2770SOL    HW2 8348   2.414   4.016   4.580
 2771SOL     OW 8349   3.320   4.459   4.452
 2771SOL    HW1 8350   3.315   4.394   4.527
 2771SOL    HW2 8351   3.400   4.518   4.465
 2772SOL     OW 8352   3.262   3.831   4.150
 2772SOL    HW1 8353   3.238   3.794   4.060
 2772SOL    HW2 8354   3.361   3.847   4.154
 2773SOL     OW 8355   2.244   4.424   4.204
 2773SOL    HW1 8356   2.289   4.334   4.201
 2773SOL    HW2 8357   2.150   4.413   4.237
 2774SOL     OW 8358   2.476   3.846   3.841
 2774SOL    HW1 8359   2.574   3.824   3.848
 2774SOL    HW2 8360   2.445   3.829   3.748
 2775SOL     OW 8361   2.784   4.227   4.623
 2775SOL    HW1 8362   2.759   4.218   4.527
 2775SOL    HW2 8363   2.832   4.145   4.654
 2776SOL     OW 8364   2.401   3.788   4.236
 2776SOL    HW1 8365   2.320   3.789   4.294
 2776SOL    HW2 8366   2.404   3.871   4.181
 2777SOL     OW 8367   2.159   3.759   3.895
 2777SOL    HW1 8368   2.208   3.843   3.874
 2777SOL    HW2 8369   2.221   3.694   3.940
 2778SOL     OW 8370   2.797   3.960   4.204
 2778SOL    HW1 8371   2.749   4.001   4.126
 2778SOL    HW2 8372   2.896   3.958   4.185
 2779SOL     OW 8373   2.894   4.273   3.740
 2779SOL    HW1 8374   2.853   4.355   3.701
 2779SOL    HW2 8375   2.958   4.299   3.813
 2780SOL     OW 8376   2.728   4.178   4.366
 2780SOL    HW1 8377   2.696   4.250   4.304
 2780SOL    HW2 8378   2.752   4.097   4.313
 2781SOL     OW 8379   2.879   3.763   4.477
 2781SOL    HW1 8380   2.807   3.768   4.408
 2781SOL    HW2 8381   2.855   3.694   4.546
 2782SOL     OW 8382   3.291   4.897   4.591
 2782SOL    HW1 8383   3.236   4.813   4.584
 2782SOL    HW2 8384   3.317   4.926   4.499
 2783SOL     OW 8385   3.328   4.314   4.716
 2783SOL    HW1 8386   3.298   4.219   4.723
 2783SOL    HW2 8387   3.401   4.330   4.782
 2784SOL     OW 8388   3.719   4.557   4.101
 2784SOL    HW1 8389   3.761   4.493   4.165
 2784SOL    HW2 8390   3.681   4.506   4.023
 2785SOL     OW 8391   3.252   4.299   3.802
 2785SOL    HW1 8392   3.198   4.278   3.883
 2785SOL    HW2 8393   3.343   4.258   3.811
 2786SOL     OW 8394   2.389   3.980   4.052
 2786SOL    HW1 8395   2.416   3.921   3.977
 2786SOL    HW2 8396   2.389   4.075   4.021
 2787SOL     OW 8397   3.500   4.823   4.803
 2787SOL    HW1 8398   3.505   4.904   4.862
 2787SOL    HW2 8399   3.414   4.825   4.752
 2788SOL     OW 8400   2.428   4.261   4.589
 2788SOL    HW1 8401   2.440   4.327   4.515
 2788SOL    HW2 8402   2.474   4.295   4.672
 2789SOL     OW 8403   3.444   4.363   4.196
 2789SOL    HW1 8404   3.413   4.424   4.269
 2789SOL    HW2 8405   3.494   4.415   4.127
 2790SOL     OW 8406   2.435   4.594   4.753
 2790SOL    HW1 8407   2.479   4.683   4.744
 2790SOL    HW2 8408   2.372   4.594   4.830
 2791SOL     OW 8409   3.071   4.249   3.999
 2791SOL    HW1 8410   3.084   4.165   4.053
 2791SOL    HW2 8411   3.042   4.323   4.059
 2792SOL     OW 8412   2.169   3.937   4.955
 2792SOL    HW1 8413   2.146   3.974   5.045
 2792SOL    HW2 8414   2.139   3.842   4.949
 2793SOL     OW 8415   2.594   4.358   4.788
 2793SOL    HW1 8416   2.653   4.332   4.712
 2793SOL    HW2 8417   2.566   4.454   4.777
 2794SOL     OW 8418   2.169   3.787   4.342
 2794SOL    HW1 8419   2.158   3.881   4.375
 2794SOL    HW2 8420   2.164   3.724   4.419
 2795SOL     OW 8421   3.484   4.091   4.098
 2795SOL    HW1 8422   3.486   4.015   4.162
 2795SOL    HW2 8423   3.436   4.168   4.138
 2796SOL     OW 8424   3.402   3.998   3.849
 2796SOL    HW1 8425   3.341   3.923   3.872
 2796SOL    HW2 8426   3.424   4.050   3.932
 2797SOL     OW 8427   3.165   4.562   3.766
 2797SOL    HW1 8428   3.199   4.469   3.781
 2797SOL    HW2 8429   3.183   4.589   3.671
 2798SOL     OW 8430   2.181   4.534   4.673
 2798SOL    HW1 8431   2.274   4.570   4.678
 2798SOL    HW2 8432   2.175   4.449   4.725
 2799SOL     OW 8433   2.201   4.233   4.730
 2799SOL    HW1 8434   2.149   4.150   4.713
 2799SOL    HW2 8435   2.278   4.238   4.666
 2800SOL     OW 8436   2.864   4.520   4.962
 2800SOL    HW1 8437   2.905   4.488   5.048
 2800SOL    HW2 8438   2.768   4.493   4.959
 2801SOL     OW 8439   2.677   4.296   4.049
 2801SOL    HW1 8440   2.684   4.207   4.003
 2801SOL    HW2 8441   2.583   4.330   4.041
 2802SOL     OW 8442   2.533   4.188   4.993
 2802SOL    HW1 8443   2.499   4.099   4.963
 2802SOL    HW2 8444   2.559   4.242   4.913
 2803SOL     OW 8445   2.335   4.224   3.915
 2803SOL    HW1 8446   2.396   4.304   3.919
 2803SOL    HW2 8447   2.240   4.255   3.922
 2804SOL     OW 8448   3.164   4.579   4.033
 2804SOL    HW1 8449   3.078   4.548   4.075
 2804SOL    HW2 8450   3.160   4.565   3.934
 2805SOL     OW 8451   3.588   3.859   4.247
 2805SOL    HW1 8452   3.661   3.842   4.180
 2805SOL    HW2 8453   3.557   3.772   4.285
 2806SOL     OW 8454   3.142   4.651   4.396
 2806SOL    HW1 8455   3.202   4.570   4.398
 2806SOL    HW2 8456   3.182   4.720   4.336
 2807SOL     OW 8457   3.703   3.899   4.687
 2807SOL    HW1 8458   3.742   3.814   4.651
 2807SOL    HW2 8459   3.605   3.901   4.668
 2808SOL     OW 8460   2.125   4.050   4.444
 2808SOL    HW1 8461   2.046   4.101   4.410
 2808SOL    HW2 8462   2.116   4.035   4.542
 2809SOL     OW 8463   2.778   4.634   4.015
 2809SOL    HW1 8464   2.841   4.672   3.947
 2809SOL    HW2 8465   2.818   4.551   4.054
 2810SOL     OW 8466   1.937   4.069   3.757
 2810SOL    HW1 8467   1.845   4.041   3.728
 2810SOL    HW2 8468   1.968   4.146   3.701
 2811SOL     OW 8469   1.934   3.890   4.042
 2811SOL    HW1 8470   1.917   3.973   3.988
 2811SOL    HW2 8471   2.024   3.853   4.020
 2812SOL     OW 8472   3.045   5.059   3.843
 2812SOL    HW1 8473   2.946   5.048   3.845
 2812SOL    HW2 8474   3.079   5.074   3.936
 2813SOL     OW 8475   3.536   4.607   4.978
 2813SOL    HW1 8476   3.509   4.518   4.941
 2813SOL    HW2 8477   3.537   4.675   4.905
 2814SOL     OW 8478   3.087   4.049   4.173
 2814SOL    HW1 8479   3.152   3.975   4.162
 2814SOL    HW2 8480   3.107   4.099   4.257
 2815SOL     OW 8481   2.456   4.469   4.376
 2815SOL    HW1 8482   2.506   4.554   4.357
 2815SOL    HW2 8483   2.368   4.471   4.328
 2816SOL     OW 8484   2.721   4.680   4.585
 2816SOL    HW1 8485   2.775   4.611   4.633
 2816SOL    HW2 8486   2.689   4.749   4.651
 2817SOL     OW 8487   2.945   4.708   3.811
 2817SOL    HW1 8488   2.922   4.761   3.729
 2817SOL    HW2 8489   3.026   4.652   3.792
 2818SOL     OW 8490   1.941   4.964   4.377
 2818SOL    HW1 8491   1.940   4.917   4.465
 2818SOL    HW2 8492   2.023   4.936   4.326
 2819SOL     OW 8493   3.686   3.916   4.951
 2819SOL    HW1 8494   3.682   3.826   4.995
 2819SOL    HW2 8495   3.689   3.905   4.852
 2820SOL     OW 8496   2.290   4.148   4.244
 2820SOL    HW1 8497   2.320   4.076   4.182
 2820SOL    HW2 8498   2.251   4.108   4.327
 2821SOL     OW 8499   3.214   3.776   3.892
 2821SOL    HW1 8500   3.249   3.735   3.808
 2821SOL    HW2 8501   3.124   3.738   3.912
 2822SOL     OW 8502   3.162   4.177   4.415
 2822SOL    HW1 8503   3.103   4.257   4.419
 2822SOL    HW2 8504   3.177   4.142   4.508
 2823SOL     OW 8505   3.455   3.945   4.606
 2823SOL    HW1 8506   3.371   3.944   4.660
 2823SOL    HW2 8507   3.457   4.028   4.550
 2824SOL     OW 8508   1.901   4.801   4.024
 2824SOL    HW1 8509   2.000   4.790   4.015
 2824SOL    HW2 8510   1.861   4.715   4.056
 2825SOL     OW 8511   3.954   0.628   0.113
 2825SOL    HW1 8512   3.861   0.626   0.150
 2825SOL    HW2 8513   3.955   0.589   0.021
 2826SOL     OW 8514   3.949   0.275   0.996
 2826SOL    HW1 8515   3.984   0.258   1.088
 2826SOL    HW2 8516   3.861   0.230   0.984
 2827SOL     OW 8517   3.743   0.368   0.647
 2827SOL    HW1 8518   3.661   0.411   0.686
 2827SOL    HW2 8519   3.715   0.295   0.584
 2828SOL     OW 8520   4.293   1.275   1.165
 2828SOL    HW1 8521   4.200   1.268   1.128
 2828SOL    HW2 8522   4.304   1.364   1.209
 2829SOL     OW 8523   4.492   1.144   1.023
 2829SOL    HW1 8524   4.414   1.161   1.083
 2829SOL    HW2 8525   4.526   1.231   0.987
 2830SOL     OW 8526   4.574   0.798   1.823
 2830SOL    HW1 8527   4.570   0.874   1.888
 2830SOL    HW2 8528   4.596   0.834   1.732
 2831SOL     OW 8529   4.409   1.012   0.665
 2831SOL    HW1 8530   4.478   0.996   0.735
 2831SOL    HW2 8531   4.336   1.069   0.703
 2832SOL     OW 8532   4.410   1.161   1.803
 2832SOL    HW1 8533   4.470   1.240   1.817
 2832SOL    HW2 8534   4.324   1.192   1.762
 2833SOL     OW 8535   4.059   1.435   1.061
 2833SOL    HW1 8536   3.981   1.404   1.008
 2833SOL    HW2 8537   4.117   1.493   1.004
 2834SOL     OW 8538   4.162   0.392   1.499
 2834SOL    HW1 8539   4.244   0.336   1.508
 2834SOL    HW2 8540   4.081   0.334   1.503
 2835SOL     OW 8541   3.955   1.713   0.483
 2835SOL    HW1 8542   3.989   1.790   0.537
 2835SOL    HW2 8543   3.999   1.713   0.393
 2836SOL     OW 8544   3.954   1.434   0.538
 2836SOL    HW1 8545   3.928   1.530   0.538
 2836SOL    HW2 8546   3.883   1.380   0.583
 2837SOL     OW 8547   3.964   1.091   0.886
 2837SOL    HW1 8548   3.978   1.007   0.938
 2837SOL    HW2 8549   3.909   1.155   0.941
 2838SOL     OW 8550   4.344   1.786   1.439
 2838SOL    HW1 8551   4.252   1.769   1.474
 2838SOL    HW2 8552   4.372   1.878   1.465
 2839SOL     OW 8553   4.330   0.964   0.123
 2839SOL    HW1 8554   4.337   1.048   0.069
 2839SOL    HW2 8555   4.376   0.977   0.211
 2840SOL     OW 8556   3.846   0.643   0.563
 2840SOL    HW1 8557   3.801   0.555   0.580
 2840SOL    HW2 8558   3.845   0.697   0.647
 2841SOL     OW 8559   3.751   1.596   0.117
 2841SOL    HW1 8560   3.732   1.500   0.138
 2841SOL    HW2 8561   3.718   1.654   0.192
 2842SOL     OW 8562   3.837   0.737   1.597
 2842SOL    HW1 8563   3.925   0.724   1.642
 2842SOL    HW2 8564   3.824   0.834   1.575
 2843SOL     OW 8565   4.337   1.365   0.726
 2843SOL    HW1 8566   4.288   1.278   0.735
 2843SOL    HW2 8567   4.314   1.408   0.639
 2844SOL     OW 8568   4.533   0.004   0.502
 2844SOL    HW1 8569   4.573   0.095   0.493
 2844SOL    HW2 8570   4.433   0.012   0.508
 2845SOL     OW 8571   3.921   0.976   1.264
 2845SOL    HW1 8572   4.010   0.931   1.250
 2845SOL    HW2 8573   3.848   0.911   1.245
 2846SOL     OW 8574   4.041   0.251   1.801
 2846SOL    HW1 8575   4.112   0.322   1.807
 2846SOL    HW2 8576   3.953   0.290   1.829
 2847SOL     OW 8577   4.322   0.729   0.270
 2847SOL    HW1 8578   4.346   0.798   0.202
 2847SOL    HW2 8579   4.244   0.762   0.324
 2848SOL     OW 8580   4.531   0.605   1.465
 2848SOL    HW1 8581   4.484   0.602   1.554
 2848SOL    HW2 8582   4.480   0.550   1.399
 2849SOL     OW 8583   4.697   0.890   1.572
 2849SOL    HW1 8584   4.743   0.806   1.543
 2849SOL    HW2 8585   4.641   0.924   1.497
 2850SOL     OW 8586   4.715   0.410   1.242
 2850SOL    HW1 8587   4.638   0.444   1.296
 2850SOL    HW2 8588   4.681   0.359   1.163
 2851SOL     OW 8589   4.765   0.701   0.429
 2851SOL    HW1 8590   4.791   0.697   0.525
 2851SOL    HW2 8591   4.680   0.650   0.415
 2852SOL     OW 8592   3.800   0.811   0.789
 2852SOL    HW1 8593   3.899   0.799   0.798
 2852SOL    HW2 8594   3.776   0.906   0.810
 2853SOL     OW 8595   3.854   1.821   1.571
 2853SOL    HW1 8596   3.844   1.806   1.670
 2853SOL    HW2 8597   3.768   1.857   1.535
 2854SOL     OW 8598   4.589   0.348   0.195
 2854SOL    HW1 8599   4.648   0.411   0.146
 2854SOL    HW2 8600   4.608   0.254   0.166
 2855SOL     OW 8601   4.274   0.196   0.885
 2855SOL    HW1 8602   4.269   0.191   0.985
 2855SOL    HW2 8603   4.276   0.292   0.856
 2856SOL     OW 8604   4.732   1.456   0.477
 2856SOL    HW1 8605   4.686   1.528   0.425
 2856SOL    HW2 8606   4.728   1.476   0.575
 2857SOL     OW 8607   4.075   1.801   0.853
 2857SOL    HW1 8608   4.125   1.715   0.859
 2857SOL    HW2 8609   4.140   1.878   0.850
 2858SOL     OW 8610   4.045   0.943   0.242
 2858SOL    HW1 8611   4.127   0.982   0.200
 2858SOL    HW2 8612   4.018   0.861   0.193
 2859SOL     OW 8613   4.185   1.266   1.727
 2859SOL    HW1 8614   4.135   1.267   1.641
 2859SOL    HW2 8615   4.122   1.248   1.803
 2860SOL     OW 8616   3.926   0.285   1.498
 2860SOL    HW1 8617   3.846   0.345   1.485
 2860SOL    HW2 8618   3.916   0.236   1.584
 2861SOL     OW 8619   4.188   1.743   0.323
 2861SOL    HW1 8620   4.221   1.782   0.409
 2861SOL    HW2 8621   4.264   1.736   0.258
 2862SOL     OW 8622   3.973   1.785   1.241
 2862SOL    HW1 8623   4.030   1.720   1.291
 2862SOL    HW2 8624   3.957   1.752   1.148
 2863SOL     OW 8625   4.106   0.700   0.480
 2863SOL    HW1 8626   4.151   0.610   0.477
 2863SOL    HW2 8627   4.012   0.689   0.513
 2864SOL     OW 8628   4.338   0.122   0.117
 2864SOL    HW1 8629   4.436   0.100   0.124
 2864SOL    HW2 8630   4.307   0.105   0.024
 2865SOL     OW 8631   4.505   0.264   1.749
 2865SOL    HW1 8632   4.572   0.203   1.792
 2865SOL    HW2 8633   4.432   0.283   1.814
 2866SOL     OW 8634   4.612   1.514   1.195
 2866SOL    HW1 8635   4.589   1.489   1.101
 2866SOL    HW2 8636   4.673   1.445   1.234
 2867SOL     OW 8637   4.527   1.402   0.924
 2867SOL    HW1 8638   4.617   1.416   0.882
 2867SOL    HW2 8639   4.456   1.404   0.853
 2868SOL     OW 8640   4.646   0.503   0.899
 2868SOL    HW1 8641   4.621   0.494   0.803
 2868SOL    HW2 8642   4.694   0.421   0.930
 2869SOL     OW 8643   4.263   0.064   0.512
 2869SOL    HW1 8644   4.182   0.065   0.570
 2869SOL    HW2 8645   4.266   0.147   0.457
 2870SOL     OW 8646   5.158   1.188   0.041
 2870SOL    HW1 8647   5.190   1.112   0.098
 2870SOL    HW2 8648   5.066   1.215   0.071
 2871SOL     OW 8649   4.021   0.035   0.171
 2871SOL    HW1 8650   4.070   0.119   0.150
 2871SOL    HW2 8651   4.083  -0.030   0.216
 2872SOL     OW 8652   4.659   0.236   0.480
 2872SOL    HW1 8653   4.611   0.277   0.402
 2872SOL    HW2 8654   4.758   0.234   0.461
 2873SOL     OW 8655   4.951   1.570   0.793
 2873SOL    HW1 8656   4.972   1.644   0.728
 2873SOL    HW2 8657   5.019   1.570   0.866
 2874SOL     OW 8658   4.183   1.152   0.741
 2874SOL    HW1 8659   4.112   1.125   0.806
 2874SOL    HW2 8660   4.157   1.124   0.648
 2875SOL     OW 8661   4.756   0.549   0.016
 2875SOL    HW1 8662   4.715   0.631  -0.023
 2875SOL    HW2 8663   4.820   0.575   0.089
 2876SOL     OW 8664   3.802   0.556   1.386
 2876SOL    HW1 8665   3.894   0.555   1.345
 2876SOL    HW2 8666   3.796   0.630   1.453
 2877SOL     OW 8667   4.285   0.222   1.147
 2877SOL    HW1 8668   4.323   0.138   1.184
 2877SOL    HW2 8669   4.197   0.241   1.191
 2878SOL     OW 8670   4.590   0.454   0.642
 2878SOL    HW1 8671   4.558   0.526   0.580
 2878SOL    HW2 8672   4.614   0.373   0.589
 2879SOL     OW 8673   4.741   0.039   0.753
 2879SOL    HW1 8674   4.669   0.044   0.684
 2879SOL    HW2 8675   4.717  -0.030   0.822
 2880SOL     OW 8676   4.212   1.385   0.174
 2880SOL    HW1 8677   4.125   1.370   0.221
 2880SOL    HW2 8678   4.195   1.411   0.079
 2881SOL     OW 8679   4.251   0.256   0.328
 2881SOL    HW1 8680   4.278   0.197   0.253
 2881SOL    HW2 8681   4.251   0.351   0.297
 2882SOL     OW 8682   4.639   0.089   1.402
 2882SOL    HW1 8683   4.664   0.069   1.307
 2882SOL    HW2 8684   4.711   0.145   1.444
 2883SOL     OW 8685   4.704   1.116   1.719
 2883SOL    HW1 8686   4.605   1.122   1.729
 2883SOL    HW2 8687   4.727   1.036   1.663
 2884SOL     OW 8688   4.429   1.050   0.368
 2884SOL    HW1 8689   4.415   1.057   0.467
 2884SOL    HW2 8690   4.513   0.999   0.350
 2885SOL     OW 8691   4.134   0.813   1.251
 2885SOL    HW1 8692   4.220   0.825   1.301
 2885SOL    HW2 8693   4.092   0.726   1.278
 2886SOL     OW 8694   3.788   1.564   1.331
 2886SOL    HW1 8695   3.742   1.646   1.297
 2886SOL    HW2 8696   3.886   1.583   1.340
 2887SOL     OW 8697   4.091   1.100   0.501
 2887SOL    HW1 8698   4.084   1.183   0.445
 2887SOL    HW2 8699   4.095   1.020   0.441
 2888SOL     OW 8700   4.290   0.537   0.865
 2888SOL    HW1 8701   4.302   0.603   0.791
 2888SOL    HW2 8702   4.336   0.571   0.948
 2889SOL     OW 8703   4.078   1.510   1.329
 2889SOL    HW1 8704   4.057   1.466   1.242
 2889SOL    HW2 8705   4.175   1.536   1.332
 2890SOL     OW 8706   4.126   0.751   1.598
 2890SOL    HW1 8707   4.194   0.806   1.551
 2890SOL    HW2 8708   4.166   0.663   1.625
 2891SOL     OW 8709   4.737   0.105   1.770
 2891SOL    HW1 8710   4.743   0.190   1.718
 2891SOL    HW2 8711   4.769   0.029   1.713
 2892SOL     OW 8712   4.228   0.050   1.740
 2892SOL    HW1 8713   4.186  -0.007   1.670
 2892SOL    HW2 8714   4.162   0.119   1.772
 2893SOL     OW 8715   4.297   0.870   1.029
 2893SOL    HW1 8716   4.341   0.959   1.020
 2893SOL    HW2 8717   4.234   0.870   1.106
 2894SOL     OW 8718   4.933   0.525   0.275
 2894SOL    HW1 8719   4.946   0.441   0.329
 2894SOL    HW2 8720   4.904   0.599   0.335
 2895SOL     OW 8721   4.031   0.213   1.231
 2895SOL    HW1 8722   4.008   0.250   1.321
 2895SOL    HW2 8723   4.001   0.118   1.225
 2896SOL     OW 8724   3.761   1.310   1.282
 2896SOL    HW1 8725   3.814   1.261   1.350
 2896SOL    HW2 8726   3.783   1.408   1.287
 2897SOL     OW 8727   4.456   0.634   1.064
 2897SOL    HW1 8728   4.515   0.608   0.988
 2897SOL    HW2 8729   4.428   0.730   1.053
 2898SOL     OW 8730   4.031   0.063   0.618
 2898SOL    HW1 8731   4.020   0.157   0.651
 2898SOL    HW2 8732   4.026   0.000   0.695
 2899SOL     OW 8733   4.747   0.766   0.966
 2899SOL    HW1 8734   4.762   0.787   1.062
 2899SOL    HW2 8735   4.717   0.671   0.957
 2900SOL     OW 8736   4.704   1.573   1.700
 2900SOL    HW1 8737   4.684   1.617   1.612
 2900SOL    HW2 8738   4.743   1.482   1.684
 2901SOL     OW 8739   4.074   0.898   1.804
 2901SOL    HW1 8740   4.150   0.942   1.852
 2901SOL    HW2 8741   4.109   0.851   1.722
 2902SOL     OW 8742   4.043   0.810   0.949
 2902SOL    HW1 8743   4.136   0.846   0.954
 2902SOL    HW2 8744   4.037   0.725   1.001
 2903SOL     OW 8745   4.063   0.509   1.006
 2903SOL    HW1 8746   4.011   0.426   0.989
 2903SOL    HW2 8747   4.140   0.514   0.942
 2904SOL     OW 8748   3.732   1.326   0.200
 2904SOL    HW1 8749   3.639   1.347   0.169
 2904SOL    HW2 8750   3.742   1.227   0.213
 2905SOL     OW 8751   3.812   1.801   0.927
 2905SOL    HW1 8752   3.770   1.715   0.900
 2905SOL    HW2 8753   3.906   1.804   0.893
 2906SOL     OW 8754   4.228   1.568   0.910
 2906SOL    HW1 8755   4.294   1.642   0.919
 2906SOL    HW2 8756   4.272   1.489   0.868
 2907SOL     OW 8757   4.726   0.796   1.238
 2907SOL    HW1 8758   4.767   0.764   1.324
 2907SOL    HW2 8759   4.630   0.769   1.235
 2908SOL     OW 8760   3.764   0.544   1.114
 2908SOL    HW1 8761   3.849   0.511   1.073
 2908SOL    HW2 8762   3.777   0.559   1.212
 2909SOL     OW 8763   3.913   0.520   1.722
 2909SOL    HW1 8764   3.972   0.480   1.652
 2909SOL    HW2 8765   3.855   0.591   1.681
 2910SOL     OW 8766   4.539   0.572   0.325
 2910SOL    HW1 8767   4.546   0.483   0.279
 2910SOL    HW2 8768   4.445   0.606   0.317
 2911SOL     OW 8769   3.976   1.564   1.744
 2911SOL    HW1 8770   3.946   1.621   1.820
 2911SOL    HW2 8771   3.969   1.467   1.770
 2912SOL     OW 8772   4.395   0.464   1.269
 2912SOL    HW1 8773   4.361   0.375   1.239
 2912SOL    HW2 8774   4.421   0.518   1.189
 2913SOL     OW 8775   4.654   1.678   1.465
 2913SOL    HW1 8776   4.630   1.660   1.370
 2913SOL    HW2 8777   4.684   1.772   1.475
 2914SOL     OW 8778   4.197   0.500   0.191
 2914SOL    HW1 8779   4.258   0.580   0.195
 2914SOL    HW2 8780   4.102   0.531   0.198
 2915SOL     OW 8781   3.883   1.137   1.466
 2915SOL    HW1 8782   3.905   1.076   1.542
 2915SOL    HW2 8783   3.893   1.088   1.380
 2916SOL     OW 8784   3.807   1.258   1.022
 2916SOL    HW1 8785   3.802   1.257   1.122
 2916SOL    HW2 8786   3.724   1.217   0.984
 2917SOL     OW 8787   4.412   1.662   1.716
 2917SOL    HW1 8788   4.356   1.743   1.725
 2917SOL    HW2 8789   4.464   1.666   1.630
 2918SOL     OW 8790   4.627   0.086   0.133
 2918SOL    HW1 8791   4.678   0.087   0.047
 2918SOL    HW2 8792   4.683   0.044   0.204
 2919SOL     OW 8793   3.854   1.794   1.851
 2919SOL    HW1 8794   3.813   1.720   1.904
 2919SOL    HW2 8795   3.918   1.845   1.909
 2920SOL     OW 8796   5.004   0.927   0.672
 2920SOL    HW1 8797   5.064   0.846   0.674
 2920SOL    HW2 8798   5.044   0.996   0.612
 2921SOL     OW 8799   4.554   1.273   1.422
 2921SOL    HW1 8800   4.549   1.306   1.517
 2921SOL    HW2 8801   4.468   1.292   1.376
 2922SOL     OW 8802   4.396   1.616   0.154
 2922SOL    HW1 8803   4.405   1.626   0.055
 2922SOL    HW2 8804   4.356   1.527   0.175
 2923SOL     OW 8805   3.987   0.326   0.720
 2923SOL    HW1 8806   3.908   0.377   0.686
 2923SOL    HW2 8807   3.978   0.311   0.818
 2924SOL     OW 8808   4.546   1.002   1.372
 2924SOL    HW1 8809   4.586   1.001   1.280
 2924SOL    HW2 8810   4.556   1.094   1.412
 2925SOL     OW 8811   4.640   0.910   0.291
 2925SOL    HW1 8812   4.703   0.948   0.223
 2925SOL    HW2 8813   4.680   0.827   0.330
 2926SOL     OW 8814   4.096   1.288   1.490
 2926SOL    HW1 8815   4.083   1.381   1.456
 2926SOL    HW2 8816   4.012   1.236   1.477
 2927SOL     OW 8817   4.763   1.098   0.696
 2927SOL    HW1 8818   4.693   1.051   0.750
 2927SOL    HW2 8819   4.822   1.030   0.653
 2928SOL     OW 8820   4.738   0.236   0.971
 2928SOL    HW1 8821   4.730   0.200   0.878
 2928SOL    HW2 8822   4.736   0.160   1.036
 2929SOL     OW 8823   4.314   1.487   0.491
 2929SOL    HW1 8824   4.356   1.429   0.421
 2929SOL    HW2 8825   4.270   1.566   0.447
 2930SOL     OW 8826   3.979   1.348   0.290
 2930SOL    HW1 8827   3.883   1.349   0.263
 2930SOL    HW2 8828   3.991   1.401   0.374
 2931SOL     OW 8829   3.829   1.013   1.726
 2931SOL    HW1 8830   3.752   0.980   1.780
 2931SOL    HW2 8831   3.914   0.983   1.768
 2932SOL     OW 8832   4.396   0.203   1.489
 2932SOL    HW1 8833   4.486   0.187   1.449
 2932SOL    HW2 8834   4.404   0.208   1.588
 2933SOL     OW 8835   3.799   0.345   0.033
 2933SOL    HW1 8836   3.707   0.317   0.004
 2933SOL    HW2 8837   3.830   0.422  -0.023
 2934SOL     OW 8838   3.796   0.166   0.318
 2934SOL    HW1 8839   3.779   0.249   0.264
 2934SOL    HW2 8840   3.886   0.129   0.296
 2935SOL     OW 8841   4.337   0.842   1.431
 2935SOL    HW1 8842   4.393   0.923   1.414
 2935SOL    HW2 8843   4.396   0.762   1.434
 2936SOL     OW 8844   4.440   0.565   1.708
 2936SOL    HW1 8845   4.459   0.630   1.782
 2936SOL    HW2 8846   4.500   0.485   1.717
 2937SOL     OW 8847   4.114   1.741   1.560
 2937SOL    HW1 8848   4.023   1.782   1.558
 2937SOL    HW2 8849   4.107   1.647   1.592
 2938SOL     OW 8850   4.949   0.325   0.449
 2938SOL    HW1 8851   5.014   0.251   0.438
 2938SOL    HW2 8852   4.969   0.375   0.533
 2939SOL     OW 8853   4.318   0.745   0.652
 2939SOL    HW1 8854   4.368   0.830   0.633
 2939SOL    HW2 8855   4.230   0.747   0.604
 2940SOL     OW 8856   4.583   1.374   0.016
 2940SOL    HW1 8857   4.537   1.389   0.104
 2940SOL    HW2 8858   4.627   1.459  -0.014
 2941SOL     OW 8859   4.385   1.790   0.953
 2941SOL    HW1 8860   4.339   1.878   0.940
 2941SOL    HW2 8861   4.484   1.802   0.946
 2942SOL     OW 8862   4.583   0.956   0.861
 2942SOL    HW1 8863   4.637   0.887   0.909
 2942SOL    HW2 8864   4.551   1.025   0.927
 2943SOL     OW 8865   4.807   0.984   0.087
 2943SOL    HW1 8866   4.784   1.037   0.005
 2943SOL    HW2 8867   4.888   0.928   0.068
 2944SOL     OW 8868   3.945   1.314   1.844
 2944SOL    HW1 8869   3.880   1.241   1.823
 2944SOL    HW2 8870   3.949   1.328   1.942
 2945SOL     OW 8871   3.803   1.240   0.653
 2945SOL    HW1 8872   3.802   1.193   0.741
 2945SOL    HW2 8873   3.885   1.212   0.602
 2946SOL     OW 8874   4.396   1.391   1.624
 2946SOL    HW1 8875   4.318   1.341   1.662
 2946SOL    HW2 8876   4.393   1.486   1.655
 2947SOL     OW 8877   4.152   0.424   0.520
 2947SOL    HW1 8878   4.182   0.352   0.458
 2947SOL    HW2 8879   4.113   0.384   0.603
 2948SOL     OW 8880   4.041   0.547   1.280
 2948SOL    HW1 8881   4.079   0.488   1.352
 2948SOL    HW2 8882   4.081   0.521   1.192
 2949SOL     OW 8883   4.536   1.586   0.687
 2949SOL    HW1 8884   4.568   1.596   0.593
 2949SOL    HW2 8885   4.457   1.524   0.689
 2950SOL     OW 8886   4.725   0.034   1.154
 2950SOL    HW1 8887   4.662  -0.038   1.123
 2950SOL    HW2 8888   4.818  -0.002   1.154
 2951SOL     OW 8889   4.494   1.330   0.301
 2951SOL    HW1 8890   4.448   1.243   0.318
 2951SOL    HW2 8891   4.585   1.327   0.342
 2952SOL     OW 8892   4.342   1.567   1.284
 2952SOL    HW1 8893   4.337   1.649   1.341
 2952SOL    HW2 8894   4.431   1.564   1.239
 2953SOL     OW 8895   3.763   1.077   0.300
 2953SOL    HW1 8896   3.862   1.066   0.291
 2953SOL    HW2 8897   3.723   0.991   0.332
 2954SOL     OW 8898   4.599   1.646   0.337
 2954SOL    HW1 8899   4.522   1.611   0.283
 2954SOL    HW2 8900   4.567   1.717   0.399
 2955SOL     OW 8901   3.954   0.628   1.975
 2955SOL    HW1 8902   3.861   0.626   2.012
 2955SOL    HW2 8903   3.955   0.589   1.883
 2956SOL     OW 8904   3.949   0.275   2.858
 2956SOL    HW1 8905   3.984   0.258   2.950
 2956SOL    HW2 8906   3.861   0.230   2.846
 2957SOL     OW 8907   3.743   0.368   2.509
 2957SOL    HW1 8908   3.661   0.411   2.548
 2957SOL    HW2 8909   3.715   0.295   2.446
 2958SOL     OW 8910   4.293   1.275   3.027
 2958SOL    HW1 8911   4.200   1.268   2.990
 2958SOL    HW2 8912   4.304   1.364   3.071
 2959SOL     OW 8913   4.492   1.144   2.885
 2959SOL    HW1 8914   4.414   1.161   2.945
 2959SOL    HW2 8915   4.526   1.231   2.849
 2960SOL     OW 8916   4.574   0.798   3.685
 2960SOL    HW1 8917   4.570   0.874   3.750
 2960SOL    HW2 8918   4.596   0.834   3.594
 2961SOL     OW 8919   4.409   1.012   2.527
 2961SOL    HW1 8920   4.478   0.996   2.597
 2961SOL    HW2 8921   4.336   1.069   2.565
 2962SOL     OW 8922   4.410   1.161   3.665
 2962SOL    HW1 8923   4.470   1.240   3.679
 2962SOL    HW2 8924   4.324   1.192   3.624
 2963SOL     OW 8925   4.059   1.435   2.923
 2963SOL    HW1 8926   3.981   1.404   2.870
 2963SOL    HW2 8927   4.117   1.493   2.866
 2964SOL     OW 8928   4.162   0.392   3.361
 2964SOL    HW1 8929   4.244   0.336   3.370
 2964SOL    HW2 8930   4.081   0.334   3.365
 2965SOL     OW 8931   3.955   1.713   2.345
 2965SOL    HW1 8932   3.989   1.790   2.399
 2965SOL    HW2 8933   3.999   1.713   2.255
 2966SOL     OW 8934   3.954   1.434   2.400
 2966SOL    HW1 8935   3.928   1.530   2.400
 2966SOL    HW2 8936   3.883   1.380   2.445
 2967SOL     OW 8937   3.964   1.091   2.748
 2967SOL    HW1 8938   3.978   1.007   2.800
 2967SOL    HW2 8939   3.909   1.155   2.803
 2968SOL     OW 8940   4.344   1.786   3.301
 2968SOL    HW1 8941   4.252   1.769   3.336
 2968SOL    HW2 8942   4.372   1.878   3.327
 2969SOL     OW 8943   4.330   0.964   1.985
 2969SOL    HW1 8944   4.337   1.048   1.931
 2969SOL    HW2 8945   4.376   0.977   2.073
 2970SOL     OW 8946   3.846   0.643   2.425
 2970SOL    HW1 8947   3.801   0.555   2.442
 2970SOL    HW2 8948   3.845   0.697   2.509
 2971SOL     OW 8949   3.751   1.596   1.979
 2971SOL    HW1 8950   3.732   1.500   2.000
 2971SOL    HW2 8951   3.718   1.654   2.054
 2972SOL     OW 8952   3.837   0.737   3.459
 2972SOL    HW1 8953   3.925   0.724   3.504
 2972SOL    HW2 8954   3.824   0.834   3.437
 2973SOL     OW 8955   4.337   1.365   2.588
 2973SOL    HW1 8956   4.288   1.278   2.597
 2973SOL    HW2 8957   4.314   1.408   2.501
 2974SOL     OW 8958   4.533   0.004   2.364
 2974SOL    HW1 8959   4.573   0.095   2.355
 2974SOL    HW2 8960   4.433   0.012   2.370
 2975SOL     OW 8961   3.921   0.976   3.126
 2975SOL    HW1 8962   4.010   0.931   3.112
 2975SOL    HW2 8963   3.848   0.911   3.107
 2976SOL     OW 8964   4.041   0.251   3.663
 2976SOL    HW1 8965   4.112   0.322   3.669
 2976SOL    HW2 8966   3.953   0.290   3.691
 2977SOL     OW 8967   4.322   0.729   2.132
 2977SOL    HW1 8968   4.346   0.798   2.064
 2977SOL    HW2 8969   4.244   0.762   2.186
 2978SOL     OW 8970   4.531   0.605   3.327
 2978SOL    HW1 8971   4.484   0.602   3.416
 2978SOL    HW2 8972   4.480   0.550   3.261
 2979SOL     OW 8973   4.697   0.890   3.434
 2979SOL    HW1 8974   4.743   0.806   3.405
 2979SOL    HW2 8975   4.641   0.924   3.359
 2980SOL     OW 8976   4.715   0.410   3.104
 2980SOL    HW1 8977   4.638   0.444   3.158
 2980SOL    HW2 8978   4.681   0.359   3.025
 2981SOL     OW 8979   4.765   0.701   2.291
 2981SOL    HW1 8980   4.791   0.697   2.387
 2981SOL    HW2 8981   4.680   0.650   2.277
 2982SOL     OW 8982   3.800   0.811   2.651
 2982SOL    HW1 8983   3.899   0.799   2.660
 2982SOL    HW2 8984   3.776   0.906   2.672
 2983SOL     OW 8985   3.854   1.821   3.433
 2983SOL    HW1 8986   3.844   1.806   3.532
 2983SOL    HW2 8987   3.768   1.857   3.397
 2984SOL     OW 8988   4.589   0.348   2.057
 2984SOL    HW1 8989   4.648   0.411   2.008
 2984SOL    HW2 8990   4.608   0.254   2.028
 2985SOL     OW 8991   4.274   0.196   2.747
 2985SOL    HW1 8992   4.269   0.191   2.847
 2985SOL    HW2 8993   4.276   0.292   2.718
 2986SOL     OW 8994   4.732   1.456   2.339
 2986SOL    HW1 8995   4.686   1.528   2.287
 2986SOL    HW2 8996   4.728   1.476   2.437
 2987SOL     OW 8997   4.075   1.801   2.715
 2987SOL    HW1 8998   4.125   1.715   2.721
 2987SOL    HW2 8999   4.140   1.878   2.712
 2988SOL     OW 9000   4.045   0.943   2.104
 2988SOL    HW1 9001   4.127   0.982   2.062
 2988SOL    HW2 9002   4.018   0.861   2.055
 2989SOL     OW 9003   4.185   1.266   3.589
 2989SOL    HW1 9004   4.135   1.267   3.503
 2989SOL    HW2 9005   4.122   1.248   3.665
 2990SOL     OW 9006   3.926   0.285   3.360
 2990SOL    HW1 9007   3.846   0.345   3.347
 2990SOL    HW2 9008   3.916   0.236   3.446
 2991SOL     OW 9009   4.188   1.743   2.185
 2991SOL    HW1 9010   4.221   1.782   2.271
 2991SOL    HW2 9011   4.264   1.736   2.120
 2992SOL     OW 9012   3.973   1.785   3.103
 2992SOL    HW1 9013   4.030   1.720   3.153
 2992SOL    HW2 9014   3.957   1.752   3.010
 2993SOL     OW 9015   4.106   0.700   2.342
 2993SOL    HW1 9016   4.151   0.610   2.339
 2993SOL    HW2 9017   4.012   0.689   2.375
 2994SOL     OW 9018   4.338   0.122   1.979
 2994SOL    HW1 9019   4.436   0.100   1.986
 2994SOL    HW2 9020   4.307   0.105   1.886
 2995SOL     OW 9021   4.505   0.264   3.611
 2995SOL    HW1 9022   4.572   0.203   3.654
 2995SOL    HW2 9023   4.432   0.283   3.676
 2996SOL     OW 9024   4.612   1.514   3.057
 2996SOL    HW1 9025   4.589   1.489   2.963
 2996SOL    HW2 9026   4.673   1.445   3.096
 2997SOL     OW 9027   4.527   1.402   2.786
 2997SOL    HW1 9028   4.617   1.416   2.744
 2997SOL    HW2 9029   4.456   1.404   2.715
 2998SOL     OW 9030   4.646   0.503   2.761
 2998SOL    HW1 9031   4.621   0.494   2.665
 2998SOL    HW2 9032   4.694   0.421   2.792
 2999SOL     OW 9033   4.263   0.064   2.374
 2999SOL    HW1 9034   4.182   0.065   2.432
 2999SOL    HW2 9035   4.266   0.147   2.319
 3000SOL     OW 9036   4.021   0.035   2.033
 3000SOL    HW1 9037   4.070   0.119   2.012
 3000SOL    HW2 9038   4.083  -0.030   2.078
 3001SOL     OW 9039   4.659   0.236   2.342
 3001SOL    HW1 9040   4.611   0.277   2.264
 3001SOL    HW2 9041   4.758   0.234   2.323
 3002SOL     OW 9042   4.951   1.570   2.655
 3002SOL    HW1 9043   4.972   1.644   2.590
 3002SOL    HW2 9044   5.019   1.570   2.728
 3003SOL     OW 9045   4.183   1.152   2.603
 3003SOL    HW1 9046   4.112   1.125   2.668
 3003SOL    HW2 9047   4.157   1.124   2.510
 3004SOL     OW 9048   4.756   0.549   1.878
 3004SOL    HW1 9049   4.715   0.631   1.839
 3004SOL    HW2 9050   4.820   0.575   1.951
 3005SOL     OW 9051   3.802   0.556   3.248
 3005SOL    HW1 9052   3.894   0.555   3.207
 3005SOL    HW2 9053   3.796   0.630   3.315
 3006SOL     OW 9054   4.285   0.222   3.009
 3006SOL    HW1 9055   4.323   0.138   3.046
 3006SOL    HW2 9056   4.197   0.241   3.053
 3007SOL     OW 9057   4.590   0.454   2.504
 3007SOL    HW1 9058   4.558   0.526   2.442
 3007SOL    HW2 9059   4.614   0.373   2.451
 3008SOL     OW 9060   4.741   0.039   2.615
 3008SOL    HW1 9061   4.669   0.044   2.546
 3008SOL    HW2 9062   4.717  -0.030   2.684
 3009SOL     OW 9063   4.212   1.385   2.036
 3009SOL    HW1 9064   4.125   1.370   2.083
 3009SOL    HW2 9065   4.195   1.411   1.941
 3010SOL     OW 9066   4.251   0.256   2.190
 3010SOL    HW1 9067   4.278   0.197   2.115
 3010SOL    HW2 9068   4.251   0.351   2.159
 3011SOL     OW 9069   4.639   0.089   3.264
 3011SOL    HW1 9070   4.664   0.069   3.169
 3011SOL    HW2 9071   4.711   0.145   3.306
 3012SOL     OW 9072   4.704   1.116   3.581
 3012SOL    HW1 9073   4.605   1.122   3.591
 3012SOL    HW2 9074   4.727   1.036   3.525
 3013SOL     OW 9075   4.429   1.050   2.230
 3013SOL    HW1 9076   4.415   1.057   2.329
 3013SOL    HW2 9077   4.513   0.999   2.212
 3014SOL     OW 9078   4.134   0.813   3.113
 3014SOL    HW1 9079   4.220   0.825   3.163
 3014SOL    HW2 9080   4.092   0.726   3.140
 3015SOL     OW 9081   3.788   1.564   3.193
 3015SOL    HW1 9082   3.742   1.646   3.159
 3015SOL    HW2 9083   3.886   1.583   3.202
 3016SOL     OW 9084   4.091   1.100   2.363
 3016SOL    HW1 9085   4.084   1.183   2.307
 3016SOL    HW2 9086   4.095   1.020   2.303
 3017SOL     OW 9087   4.290   0.537   2.727
 3017SOL    HW1 9088   4.302   0.603   2.653
 3017SOL    HW2 9089   4.336   0.571   2.810
 3018SOL     OW 9090   4.078   1.510   3.191
 3018SOL    HW1 9091   4.057   1.466   3.104
 3018SOL    HW2 9092   4.175   1.536   3.194
 3019SOL     OW 9093   4.126   0.751   3.460
 3019SOL    HW1 9094   4.194   0.806   3.413
 3019SOL    HW2 9095   4.166   0.663   3.487
 3020SOL     OW 9096   4.737   0.105   3.632
 3020SOL    HW1 9097   4.743   0.190   3.580
 3020SOL    HW2 9098   4.769   0.029   3.575
 3021SOL     OW 9099   4.228   0.050   3.602
 3021SOL    HW1 9100   4.186  -0.007   3.532
 3021SOL    HW2 9101   4.162   0.119   3.634
 3022SOL     OW 9102   4.297   0.870   2.891
 3022SOL    HW1 9103   4.341   0.959   2.882
 3022SOL    HW2 9104   4.234   0.870   2.968
 3023SOL     OW 9105   4.933   0.525   2.137
 3023SOL    HW1 9106   4.946   0.441   2.191
 3023SOL    HW2 9107   4.904   0.599   2.197
 3024SOL     OW 9108   4.031   0.213   3.093
 3024SOL    HW1 9109   4.008   0.250   3.183
 3024SOL    HW2 9110   4.001   0.118   3.087
 3025SOL     OW 9111   3.761   1.310   3.144
 3025SOL    HW1 9112   3.814   1.261   3.212
 3025SOL    HW2 9113   3.783   1.408   3.149
 3026SOL     OW 9114   4.456   0.634   2.926
 3026SOL    HW1 9115   4.515   0.608   2.850
 3026SOL    HW2 9116   4.428   0.730   2.915
 3027SOL     OW 9117   4.031   0.063   2.480
 3027SOL    HW1 9118   4.020   0.157   2.513
 3027SOL    HW2 9119   4.026   0.000   2.557
 3028SOL     OW 9120   4.747   0.766   2.828
 3028SOL    HW1 9121   4.762   0.787   2.924
 3028SOL    HW2 9122   4.717   0.671   2.819
 3029SOL     OW 9123   4.704   1.573   3.562
 3029SOL    HW1 9124   4.684   1.617   3.474
 3029SOL    HW2 9125   4.743   1.482   3.546
 3030SOL     OW 9126   4.074   0.898   3.666
 3030SOL    HW1 9127   4.150   0.942   3.714
 3030SOL    HW2 9128   4.109   0.851   3.584
 3031SOL     OW 9129   4.043   0.810   2.811
 3031SOL    HW1 9130   4.136   0.846   2.816
 3031SOL    HW2 9131   4.037   0.725   2.863
 3032SOL     OW 9132   4.063   0.509   2.868
 3032SOL    HW1 9133   4.011   0.426   2.851
 3032SOL    HW2 9134   4.140   0.514   2.804
 3033SOL     OW 9135   3.732   1.326   2.062
 3033SOL    HW1 9136   3.639   1.347   2.031
 3033SOL    HW2 9137   3.742   1.227   2.075
 3034SOL     OW 9138   3.812   1.801   2.789
 3034SOL    HW1 9139   3.770   1.715   2.762
 3034SOL    HW2 9140   3.906   1.804   2.755
 3035SOL     OW 9141   4.228   1.568   2.772
 3035SOL    HW1 9142   4.294   1.642   2.781
 3035SOL    HW2 9143   4.272   1.489   2.730
 3036SOL     OW 9144   4.726   0.796   3.100
 3036SOL    HW1 9145   4.767   0.764   3.186
 3036SOL    HW2 9146   4.630   0.769   3.097
 3037SOL     OW 9147   3.764   0.544   2.976
 3037SOL    HW1 9148   3.849   0.511   2.935
 3037SOL    HW2 9149   3.777   0.559   3.074
 3038SOL     OW 9150   3.913   0.520   3.584
 3038SOL    HW1 9151   3.972   0.480   3.514
 3038SOL    HW2 9152   3.855   0.591   3.543
 3039SOL     OW 9153   4.539   0.572   2.187
 3039SOL    HW1 9154   4.546   0.483   2.141
 3039SOL    HW2 9155   4.445   0.606   2.179
 3040SOL     OW 9156   3.976   1.564   3.606
 3040SOL    HW1 9157   3.946   1.621   3.682
 3040SOL    HW2 9158   3.969   1.467   3.632
 3041SOL     OW 9159   4.395   0.464   3.131
 3041SOL    HW1 9160   4.361   0.375   3.101
 3041SOL    HW2 9161   4.421   0.518   3.051
 3042SOL     OW 9162   4.654   1.678   3.327
 3042SOL    HW1 9163   4.630   1.660   3.232
 3042SOL    HW2 9164   4.684   1.772   3.337
 3043SOL     OW 9165   4.197   0.500   2.053
 3043SOL    HW1 9166   4.258   0.580   2.057
 3043SOL    HW2 9167   4.102   0.531   2.060
 3044SOL     OW 9168   3.883   1.137   3.328
 3044SOL    HW1 9169   3.905   1.076   3.404
 3044SOL    HW2 9170   3.893   1.088   3.242
 3045SOL     OW 9171   3.807   1.258   2.884
 3045SOL    HW1 9172   3.802   1.257   2.984
 3045SOL    HW2 9173   3.724   1.217   2.846
 3046SOL     OW 9174   4.412   1.662   3.578
 3046SOL    HW1 9175   4.356   1.743   3.587
 3046SOL    HW2 9176   4.464   1.666   3.492
 3047SOL     OW 9177   3.854   1.794   3.713
 3047SOL    HW1 9178   3.813   1.720   3.766
 3047SOL    HW2 9179   3.918   1.845   3.771
 3048SOL     OW 9180   5.004   0.927   2.534
 3048SOL    HW1 9181   5.064   0.846   2.536
 3048SOL    HW2 9182   5.044   0.996   2.474
 3049SOL     OW 9183   4.554   1.273   3.284
 3049SOL    HW1 9184   4.549   1.306   3.379
 3049SOL    HW2 9185   4.468   1.292   3.238
 3050SOL     OW 9186   4.396   1.616   2.016
 3050SOL    HW1 9187   4.405   1.626   1.917
 3050SOL    HW2 9188   4.356   1.527   2.037
 3051SOL     OW 9189   3.987   0.326   2.582
 3051SOL    HW1 9190   3.908   0.377   2.548
 3051SOL    HW2 9191   3.978   0.311   2.680
 3052SOL     OW 9192   4.546   1.002   3.234
 3052SOL    HW1 9193   4.586   1.001   3.142
 3052SOL    HW2 9194   4.556   1.094   3.274
 3053SOL     OW 9195   4.640   0.910   2.153
 3053SOL    HW1 9196   4.703   0.948   2.085
 3053SOL    HW2 9197   4.680   0.827   2.192
 3054SOL     OW 9198   4.096   1.288   3.352
 3054SOL    HW1 9199   4.083   1.381   3.318
 3054SOL    HW2 9200   4.012   1.236   3.339
 3055SOL     OW 9201   4.763   1.098   2.558
 3055SOL    HW1 9202   4.693   1.051   2.612
 3055SOL    HW2 9203   4.822   1.030   2.515
 3056SOL     OW 9204   4.738   0.236   2.833
 3056SOL    HW1 9205   4.730   0.200   2.740
 3056SOL    HW2 9206   4.736   0.160   2.898
 3057SOL     OW 9207   4.314   1.487   2.353
 3057SOL    HW1 9208   4.356   1.429   2.283
 3057SOL    HW2 9209   4.270   1.566   2.309
 3058SOL     OW 9210   3.979   1.348   2.152
 3058SOL    HW1 9211   3.883   1.349   2.125
 3058SOL    HW2 9212   3.991   1.401   2.236
 3059SOL     OW 9213   3.829   1.013   3.588
 3059SOL    HW1 9214   3.752   0.980   3.642
 3059SOL    HW2 9215   3.914   0.983   3.630
 3060SOL     OW 9216   4.396   0.203   3.351
 3060SOL    HW1 9217   4.486   0.187   3.311
 3060SOL    HW2 9218   4.404   0.208   3.450
 3061SOL     OW 9219   3.799   0.345   1.895
 3061SOL    HW1 9220   3.707   0.317   1.866
 3061SOL    HW2 9221   3.830   0.422   1.839
 3062SOL     OW 9222   3.796   0.166   2.180
 3062SOL    HW1 9223   3.779   0.249   2.126
 3062SOL    HW2 9224   3.886   0.129   2.158
 3063SOL     OW 9225   4.337   0.842   3.293
 3063SOL    HW1 9226   4.393   0.923   3.276
 3063SOL    HW2 9227   4.396   0.762   3.296
 3064SOL     OW 9228   4.440   0.565   3.570
 3064SOL    HW1 9229   4.459   0.630   3.644
 3064SOL    HW2 9230   4.500   0.485   3.579
 3065SOL     OW 9231   4.114   1.741   3.422
 3065SOL    HW1 9232   4.023   1.782   3.420
 3065SOL    HW2 9233   4.107   1.647   3.454
 3066SOL     OW 9234   4.949   0.325   2.311
 3066SOL    HW1 9235   5.014   0.251   2.300
 3066SOL    HW2 9236   4.969   0.375   2.395
 3067SOL     OW 9237   4.318   0.745   2.514
 3067SOL    HW1 9238   4.368   0.830   2.495
 3067SOL    HW2 9239   4.230   0.747   2.466
 3068SOL     OW 9240   4.583   1.374   1.878
 3068SOL    HW1 9241   4.537   1.389   1.966
 3068SOL    HW2 9242   4.627   1.459   1.848
 3069SOL     OW 9243   4.385   1.790   2.815
 3069SOL    HW1 9244   4.339   1.878   2.802
 3069SOL    HW2 9245   4.484   1.802   2.808
 3070SOL     OW 9246   4.583   0.956   2.723
 3070SOL    HW1 9247   4.637   0.887   2.771
 3070SOL    HW2 9248   4.551   1.025   2.789
 3071SOL     OW 9249   3.945   1.314   3.706
 3071SOL    HW1 9250   3.880   1.241   3.685
 3071SOL    HW2 9251   3.949   1.328   3.804
 3072SOL     OW 9252   3.803   1.240   2.515
 3072SOL    HW1 9253   3.802   1.193   2.603
 3072SOL    HW2 9254   3.885   1.212   2.464
 3073SOL     OW 9255   4.396   1.391   3.486
 3073SOL    HW1 9256   4.318   1.341   3.524
 3073SOL    HW2 9257   4.393   1.486   3.517
 3074SOL     OW 9258   4.152   0.424   2.382
 3074SOL    HW1 9259   4.182   0.352   2.320
 3074SOL    HW2 9260   4.113   0.384   2.465
 3075SOL     OW 9261   4.041   0.547   3.142
 3075SOL    HW1 9262   4.079   0.488   3.214
 3075SOL    HW2 9263   4.081   0.521   3.054
 3076SOL     OW 9264   4.536   1.586   2.549
 3076SOL    HW1 9265   4.568   1.596   2.455
 3076SOL    HW2 9266   4.457   1.524   2.551
 3077SOL     OW 9267   4.725   0.034   3.016
 3077SOL    HW1 9268   4.662  -0.038   2.985
 3077SOL    HW2 9269   4.818  -0.002   3.016
 3078SOL     OW 9270   4.494   1.330   2.163
 3078SOL    HW1 9271   4.448   1.243   2.180
 3078SOL    HW2 9272   4.585   1.327   2.204
 3079SOL     OW 9273   4.342   1.567   3.146
 3079SOL    HW1 9274   4.337   1.649   3.203
 3079SOL    HW2 9275   4.431   1.564   3.101
 3080SOL     OW 9276   3.763   1.077   2.162
 3080SOL    HW1 9277   3.862   1.066   2.153
 3080SOL    HW2 9278   3.723   0.991   2.194
 3081SOL     OW 9279   4.599   1.646   2.199
 3081SOL    HW1 9280   4.522   1.611   2.145
 3081SOL    HW2 9281   4.567   1.717   2.261
 3082SOL     OW 9282   3.954   0.628   3.837
 3082SOL    HW1 9283   3.861   0.626   3.874
 3082SOL    HW2 9284   3.955   0.589   3.745
 3083SOL     OW 9285   3.949   0.275   4.720
 3083SOL    HW1 9286   3.984   0.258   4.812
 3083SOL    HW2 9287   3.861   0.230   4.708
 3084SOL     OW 9288   3.743   0.368   4.371
 3084SOL    HW1 9289   3.661   0.411   4.410
 3084SOL    HW2 9290   3.715   0.295   4.308
 3085SOL     OW 9291   4.492   1.144   4.747
 3085SOL    HW1 9292   4.414   1.161   4.807
 3085SOL    HW2 9293   4.526   1.231   4.711
 3086SOL     OW 9294   4.409   1.012   4.389
 3086SOL    HW1 9295   4.478   0.996   4.459
 3086SOL    HW2 9296   4.336   1.069   4.427
 3087SOL     OW 9297   4.059   1.435   4.785
 3087SOL    HW1 9298   3.981   1.404   4.732
 3087SOL    HW2 9299   4.117   1.493   4.728
 3088SOL     OW 9300   3.955   1.713   4.207
 3088SOL    HW1 9301   3.989   1.790   4.261
 3088SOL    HW2 9302   3.999   1.713   4.117
 3089SOL     OW 9303   3.954   1.434   4.262
 3089SOL    HW1 9304   3.928   1.530   4.262
 3089SOL    HW2 9305   3.883   1.380   4.307
 3090SOL     OW 9306   3.964   1.091   4.610
 3090SOL    HW1 9307   3.978   1.007   4.662
 3090SOL    HW2 9308   3.909   1.155   4.665
 3091SOL     OW 9309   4.330   0.964   3.847
 3091SOL    HW1 9310   4.337   1.048   3.793
 3091SOL    HW2 9311   4.376   0.977   3.935
 3092SOL     OW 9312   3.846   0.643   4.287
 3092SOL    HW1 9313   3.801   0.555   4.304
 3092SOL    HW2 9314   3.845   0.697   4.371
 3093SOL     OW 9315   3.751   1.596   3.841
 3093SOL    HW1 9316   3.732   1.500   3.862
 3093SOL    HW2 9317   3.718   1.654   3.916
 3094SOL     OW 9318   4.337   1.365   4.450
 3094SOL    HW1 9319   4.288   1.278   4.459
 3094SOL    HW2 9320   4.314   1.408   4.363
 3095SOL     OW 9321   4.533   0.004   4.226
 3095SOL    HW1 9322   4.573   0.095   4.217
 3095SOL    HW2 9323   4.433   0.012   4.232
 3096SOL     OW 9324   4.322   0.729   3.994
 3096SOL    HW1 9325   4.346   0.798   3.926
 3096SOL    HW2 9326   4.244   0.762   4.048
 3097SOL     OW 9327   4.765   0.701   4.153
 3097SOL    HW1 9328   4.791   0.697   4.249
 3097SOL    HW2 9329   4.680   0.650   4.139
 3098SOL     OW 9330   3.800   0.811   4.513
 3098SOL    HW1 9331   3.899   0.799   4.522
 3098SOL    HW2 9332   3.776   0.906   4.534
 3099SOL     OW 9333   4.589   0.348   3.919
 3099SOL    HW1 9334   4.648   0.411   3.870
 3099SOL    HW2 9335   4.608   0.254   3.890
 3100SOL     OW 9336   4.274   0.196   4.609
 3100SOL    HW1 9337   4.269   0.191   4.709
 3100SOL    HW2 9338   4.276   0.292   4.580
 3101SOL     OW 9339   4.732   1.456   4.201
 3101SOL    HW1 9340   4.686   1.528   4.149
 3101SOL    HW2 9341   4.728   1.476   4.299
 3102SOL     OW 9342   4.075   1.801   4.577
 3102SOL    HW1 9343   4.125   1.715   4.583
 3102SOL    HW2 9344   4.140   1.878   4.574
 3103SOL     OW 9345   4.045   0.943   3.966
 3103SOL    HW1 9346   4.127   0.982   3.924
 3103SOL    HW2 9347   4.018   0.861   3.917
 3104SOL     OW 9348   4.188   1.743   4.047
 3104SOL    HW1 9349   4.221   1.782   4.133
 3104SOL    HW2 9350   4.264   1.736   3.982
 3105SOL     OW 9351   3.973   1.785   4.965
 3105SOL    HW1 9352   4.030   1.720   5.015
 3105SOL    HW2 9353   3.957   1.752   4.872
 3106SOL     OW 9354   4.106   0.700   4.204
 3106SOL    HW1 9355   4.151   0.610   4.201
 3106SOL    HW2 9356   4.012   0.689   4.237
 3107SOL     OW 9357   4.338   0.122   3.841
 3107SOL    HW1 9358   4.436   0.100   3.848
 3107SOL    HW2 9359   4.307   0.105   3.748
 3108SOL     OW 9360   4.527   1.402   4.648
 3108SOL    HW1 9361   4.617   1.416   4.606
 3108SOL    HW2 9362   4.456   1.404   4.577
 3109SOL     OW 9363   4.646   0.503   4.623
 3109SOL    HW1 9364   4.621   0.494   4.527
 3109SOL    HW2 9365   4.694   0.421   4.654
 3110SOL     OW 9366   4.263   0.064   4.236
 3110SOL    HW1 9367   4.182   0.065   4.294
 3110SOL    HW2 9368   4.266   0.147   4.181
 3111SOL     OW 9369   4.021   0.035   3.895
 3111SOL    HW1 9370   4.070   0.119   3.874
 3111SOL    HW2 9371   4.083  -0.030   3.940
 3112SOL     OW 9372   4.659   0.236   4.204
 3112SOL    HW1 9373   4.611   0.277   4.126
 3112SOL    HW2 9374   4.758   0.234   4.185
 3113SOL     OW 9375   4.951   1.570   4.517
 3113SOL    HW1 9376   4.972   1.644   4.452
 3113SOL    HW2 9377   5.019   1.570   4.590
 3114SOL     OW 9378   4.183   1.152   4.465
 3114SOL    HW1 9379   4.112   1.125   4.530
 3114SOL    HW2 9380   4.157   1.124   4.372
 3115SOL     OW 9381   4.756   0.549   3.740
 3115SOL    HW1 9382   4.715   0.631   3.701
 3115SOL    HW2 9383   4.820   0.575   3.813
 3116SOL     OW 9384   4.590   0.454   4.366
 3116SOL    HW1 9385   4.558   0.526   4.304
 3116SOL    HW2 9386   4.614   0.373   4.313
 3117SOL     OW 9387   4.741   0.039   4.477
 3117SOL    HW1 9388   4.669   0.044   4.408
 3117SOL    HW2 9389   4.717  -0.030   4.546
 3118SOL     OW 9390   4.212   1.385   3.898
 3118SOL    HW1 9391   4.125   1.370   3.945
 3118SOL    HW2 9392   4.195   1.411   3.803
 3119SOL     OW 9393   4.251   0.256   4.052
 3119SOL    HW1 9394   4.278   0.197   3.977
 3119SOL    HW2 9395   4.251   0.351   4.021
 3120SOL     OW 9396   4.429   1.050   4.092
 3120SOL    HW1 9397   4.415   1.057   4.191
 3120SOL    HW2 9398   4.513   0.999   4.074
 3121SOL     OW 9399   4.091   1.100   4.225
 3121SOL    HW1 9400   4.084   1.183   4.169
 3121SOL    HW2 9401   4.095   1.020   4.165
 3122SOL     OW 9402   4.290   0.537   4.589
 3122SOL    HW1 9403   4.302   0.603   4.515
 3122SOL    HW2 9404   4.336   0.571   4.672
 3123SOL     OW 9405   4.297   0.870   4.753
 3123SOL    HW1 9406   4.341   0.959   4.744
 3123SOL    HW2 9407   4.234   0.870   4.830
 3124SOL     OW 9408   4.933   0.525   3.999
 3124SOL    HW1 9409   4.946   0.441   4.053
 3124SOL    HW2 9410   4.904   0.599   4.059
 3125SOL     OW 9411   4.456   0.634   4.788
 3125SOL    HW1 9412   4.515   0.608   4.712
 3125SOL    HW2 9413   4.428   0.730   4.777
 3126SOL     OW 9414   4.031   0.063   4.342
 3126SOL    HW1 9415   4.020   0.157   4.375
 3126SOL    HW2 9416   4.026   0.000   4.419
 3127SOL     OW 9417   4.043   0.810   4.673
 3127SOL    HW1 9418   4.136   0.846   4.678
 3127SOL    HW2 9419   4.037   0.725   4.725
 3128SOL     OW 9420   4.063   0.509   4.730
 3128SOL    HW1 9421   4.011   0.426   4.713
 3128SOL    HW2 9422   4.140   0.514   4.666
 3129SOL     OW 9423   3.732   1.326   3.924
 3129SOL    HW1 9424   3.639   1.347   3.893
 3129SOL    HW2 9425   3.742   1.227   3.937
 3130SOL     OW 9426   3.812   1.801   4.651
 3130SOL    HW1 9427   3.770   1.715   4.624
 3130SOL    HW2 9428   3.906   1.804   4.617
 3131SOL     OW 9429   4.228   1.568   4.634
 3131SOL    HW1 9430   4.294   1.642   4.643
 3131SOL    HW2 9431   4.272   1.489   4.592
 3132SOL     OW 9432   4.726   0.796   4.962
 3132SOL    HW1 9433   4.767   0.764   5.048
 3132SOL    HW2 9434   4.630   0.769   4.959
 3133SOL     OW 9435   4.539   0.572   4.049
 3133SOL    HW1 9436   4.546   0.483   4.003
 3133SOL    HW2 9437   4.445   0.606   4.041
 3134SOL     OW 9438   4.395   0.464   4.993
 3134SOL    HW1 9439   4.361   0.375   4.963
 3134SOL    HW2 9440   4.421   0.518   4.913
 3135SOL     OW 9441   4.197   0.500   3.915
 3135SOL    HW1 9442   4.258   0.580   3.919
 3135SOL    HW2 9443   4.102   0.531   3.922
 3136SOL     OW 9444   3.807   1.258   4.746
 3136SOL    HW1 9445   3.802   1.257   4.846
 3136SOL    HW2 9446   3.724   1.217   4.708
 3137SOL     OW 9447   5.004   0.927   4.396
 3137SOL    HW1 9448   5.064   0.846   4.398
 3137SOL    HW2 9449   5.044   0.996   4.336
 3138SOL     OW 9450   4.396   1.616   3.878
 3138SOL    HW1 9451   4.405   1.626   3.779
 3138SOL    HW2 9452   4.356   1.527   3.899
 3139SOL     OW 9453   3.987   0.326   4.444
 3139SOL    HW1 9454   3.908   0.377   4.410
 3139SOL    HW2 9455   3.978   0.311   4.542
 3140SOL     OW 9456   4.640   0.910   4.015
 3140SOL    HW1 9457   4.703   0.948   3.947
 3140SOL    HW2 9458   4.680   0.827   4.054
 3141SOL     OW 9459   4.763   1.098   4.420
 3141SOL    HW1 9460   4.693   1.051   4.474
 3141SOL    HW2 9461   4.822   1.030   4.377
 3142SOL     OW 9462   4.314   1.487   4.215
 3142SOL    HW1 9463   4.356   1.429   4.145
 3142SOL    HW2 9464   4.270   1.566   4.171
 3143SOL     OW 9465   3.979   1.348   4.014
 3143SOL    HW1 9466   3.883   1.349   3.987
 3143SOL    HW2 9467   3.991   1.401   4.098
 3144SOL     OW 9468   3.799   0.345   3.757
 3144SOL    HW1 9469   3.707   0.317   3.728
 3144SOL    HW2 9470   3.830   0.422   3.701
 3145SOL     OW 9471   3.796   0.166   4.042
 3145SOL    HW1 9472   3.779   0.249   3.988
 3145SOL    HW2 9473   3.886   0.129   4.020
 3146SOL     OW 9474   4.949   0.325   4.173
 3146SOL    HW1 9475   5.014   0.251   4.162
 3146SOL    HW2 9476   4.969   0.375   4.257
 3147SOL     OW 9477   4.318   0.745   4.376
 3147SOL    HW1 9478   4.368   0.830   4.357
 3147SOL    HW2 9479   4.230   0.747   4.328
 3148SOL     OW 9480   4.583   1.374   3.740
 3148SOL    HW1 9481   4.537   1.389   3.828
 3148SOL    HW2 9482   4.627   1.459   3.710
 3149SOL     OW 9483   4.385   1.790   4.677
 3149SOL    HW1 9484   4.339   1.878   4.664
 3149SOL    HW2 9485   4.484   1.802   4.670
 3150SOL     OW 9486   4.583   0.956   4.585
 3150SOL    HW1 9487   4.637   0.887   4.633
 3150SOL    HW2 9488   4.551   1.025   4.651
 3151SOL     OW 9489   3.803   1.240   4.377
 3151SOL    HW1 9490   3.802   1.193   4.465
 3151SOL    HW2 9491   3.885   1.212   4.326
 3152SOL     OW 9492   4.152   0.424   4.244
 3152SOL    HW1 9493   4.182   0.352   4.182
 3152SOL    HW2 9494   4.113   0.384   4.327
 3153SOL     OW 9495   4.536   1.586   4.411
 3153SOL    HW1 9496   4.568   1.596   4.317
 3153SOL    HW2 9497   4.457   1.524   4.413
 3154SOL     OW 9498   4.494   1.330   4.025
 3154SOL    HW1 9499   4.448   1.243   4.042
 3154SOL    HW2 9500   4.585   1.327   4.066
 3155SOL     OW 9501   3.763   1.077   4.024
 3155SOL    HW1 9502   3.862   1.066   4.015
 3155SOL    HW2 9503   3.723   0.991   4.056
 3156SOL     OW 9504   4.599   1.646   4.061
 3156SOL    HW1 9505   4.522   1.611   4.007
 3156SOL    HW2 9506   4.567   1.717   4.123
 3157SOL     OW 9507   3.954   2.490   0.113
 3157SOL    HW1 9508   3.861   2.488   0.150
 3157SOL    HW2 9509   3.955   2.451   0.021
 3158SOL     OW 9510   3.949   2.137   0.996
 3158SOL    HW1 9511   3.984   2.120   1.088
 3158SOL    HW2 9512   3.861   2.092   0.984
 3159SOL     OW 9513   3.743   2.230   0.647
 3159SOL    HW1 9514   3.661   2.273   0.686
 3159SOL    HW2 9515   3.715   2.157   0.584
 3160SOL     OW 9516   4.293   3.137   1.165
 3160SOL    HW1 9517   4.200   3.130   1.128
 3160SOL    HW2 9518   4.304   3.226   1.209
 3161SOL     OW 9519   4.492   3.006   1.023
 3161SOL    HW1 9520   4.414   3.023   1.083
 3161SOL    HW2 9521   4.526   3.093   0.987
 3162SOL     OW 9522   4.574   2.660   1.823
 3162SOL    HW1 9523   4.570   2.736   1.888
 3162SOL    HW2 9524   4.596   2.696   1.732
 3163SOL     OW 9525   4.409   2.874   0.665
 3163SOL    HW1 9526   4.478   2.858   0.735
 3163SOL    HW2 9527   4.336   2.931   0.703
 3164SOL     OW 9528   4.410   3.023   1.803
 3164SOL    HW1 9529   4.470   3.102   1.817
 3164SOL    HW2 9530   4.324   3.054   1.762
 3165SOL     OW 9531   4.059   3.297   1.061
 3165SOL    HW1 9532   3.981   3.266   1.008
 3165SOL    HW2 9533   4.117   3.355   1.004
 3166SOL     OW 9534   4.162   2.254   1.499
 3166SOL    HW1 9535   4.244   2.198   1.508
 3166SOL    HW2 9536   4.081   2.196   1.503
 3167SOL     OW 9537   3.955   3.575   0.483
 3167SOL    HW1 9538   3.989   3.652   0.537
 3167SOL    HW2 9539   3.999   3.575   0.393
 3168SOL     OW 9540   3.954   3.296   0.538
 3168SOL    HW1 9541   3.928   3.392   0.538
 3168SOL    HW2 9542   3.883   3.242   0.583
 3169SOL     OW 9543   3.964   2.953   0.886
 3169SOL    HW1 9544   3.978   2.869   0.938
 3169SOL    HW2 9545   3.909   3.017   0.941
 3170SOL     OW 9546   4.344   3.648   1.439
 3170SOL    HW1 9547   4.252   3.631   1.474
 3170SOL    HW2 9548   4.372   3.740   1.465
 3171SOL     OW 9549   4.330   2.826   0.123
 3171SOL    HW1 9550   4.337   2.910   0.069
 3171SOL    HW2 9551   4.376   2.839   0.211
 3172SOL     OW 9552   3.846   2.505   0.563
 3172SOL    HW1 9553   3.801   2.417   0.580
 3172SOL    HW2 9554   3.845   2.559   0.647
 3173SOL     OW 9555   3.751   3.458   0.117
 3173SOL    HW1 9556   3.732   3.362   0.138
 3173SOL    HW2 9557   3.718   3.516   0.192
 3174SOL     OW 9558   3.837   2.599   1.597
 3174SOL    HW1 9559   3.925   2.586   1.642
 3174SOL    HW2 9560   3.824   2.696   1.575
 3175SOL     OW 9561   4.337   3.227   0.726
 3175SOL    HW1 9562   4.288   3.140   0.735
 3175SOL    HW2 9563   4.314   3.270   0.639
 3176SOL     OW 9564   4.533   1.866   0.502
 3176SOL    HW1 9565   4.573   1.957   0.493
 3176SOL    HW2 9566   4.433   1.874   0.508
 3177SOL     OW 9567   3.921   2.838   1.264
 3177SOL    HW1 9568   4.010   2.793   1.250
 3177SOL    HW2 9569   3.848   2.773   1.245
 3178SOL     OW 9570   4.041   2.113   1.801
 3178SOL    HW1 9571   4.112   2.184   1.807
 3178SOL    HW2 9572   3.953   2.152   1.829
 3179SOL     OW 9573   4.322   2.591   0.270
 3179SOL    HW1 9574   4.346   2.660   0.202
 3179SOL    HW2 9575   4.244   2.624   0.324
 3180SOL     OW 9576   4.531   2.467   1.465
 3180SOL    HW1 9577   4.484   2.464   1.554
 3180SOL    HW2 9578   4.480   2.412   1.399
 3181SOL     OW 9579   4.697   2.752   1.572
 3181SOL    HW1 9580   4.743   2.668   1.543
 3181SOL    HW2 9581   4.641   2.786   1.497
 3182SOL     OW 9582   4.715   2.272   1.242
 3182SOL    HW1 9583   4.638   2.306   1.296
 3182SOL    HW2 9584   4.681   2.221   1.163
 3183SOL     OW 9585   4.765   2.563   0.429
 3183SOL    HW1 9586   4.791   2.559   0.525
 3183SOL    HW2 9587   4.680   2.512   0.415
 3184SOL     OW 9588   3.800   2.673   0.789
 3184SOL    HW1 9589   3.899   2.661   0.798
 3184SOL    HW2 9590   3.776   2.768   0.810
 3185SOL     OW 9591   3.854   3.683   1.571
 3185SOL    HW1 9592   3.844   3.668   1.670
 3185SOL    HW2 9593   3.768   3.719   1.535
 3186SOL     OW 9594   4.589   2.210   0.195
 3186SOL    HW1 9595   4.648   2.273   0.146
 3186SOL    HW2 9596   4.608   2.116   0.166
 3187SOL     OW 9597   4.274   2.058   0.885
 3187SOL    HW1 9598   4.269   2.053   0.985
 3187SOL    HW2 9599   4.276   2.154   0.856
 3188SOL     OW 9600   4.732   3.318   0.477
 3188SOL    HW1 9601   4.686   3.390   0.425
 3188SOL    HW2 9602   4.728   3.338   0.575
 3189SOL     OW 9603   4.075   3.663   0.853
 3189SOL    HW1 9604   4.125   3.577   0.859
 3189SOL    HW2 9605   4.140   3.740   0.850
 3190SOL     OW 9606   4.045   2.805   0.242
 3190SOL    HW1 9607   4.127   2.844   0.200
 3190SOL    HW2 9608   4.018   2.723   0.193
 3191SOL     OW 9609   4.185   3.128   1.727
 3191SOL    HW1 9610   4.135   3.129   1.641
 3191SOL    HW2 9611   4.122   3.110   1.803
 3192SOL     OW 9612   3.926   2.147   1.498
 3192SOL    HW1 9613   3.846   2.207   1.485
 3192SOL    HW2 9614   3.916   2.098   1.584
 3193SOL     OW 9615   4.188   3.605   0.323
 3193SOL    HW1 9616   4.221   3.644   0.409
 3193SOL    HW2 9617   4.264   3.598   0.258
 3194SOL     OW 9618   3.973   3.647   1.241
 3194SOL    HW1 9619   4.030   3.582   1.291
 3194SOL    HW2 9620   3.957   3.614   1.148
 3195SOL     OW 9621   4.106   2.562   0.480
 3195SOL    HW1 9622   4.151   2.472   0.477
 3195SOL    HW2 9623   4.012   2.551   0.513
 3196SOL     OW 9624   4.338   1.984   0.117
 3196SOL    HW1 9625   4.436   1.962   0.124
 3196SOL    HW2 9626   4.307   1.967   0.024
 3197SOL     OW 9627   4.505   2.126   1.749
 3197SOL    HW1 9628   4.572   2.065   1.792
 3197SOL    HW2 9629   4.432   2.145   1.814
 3198SOL     OW 9630   4.612   3.376   1.195
 3198SOL    HW1 9631   4.589   3.351   1.101
 3198SOL    HW2 9632   4.673   3.307   1.234
 3199SOL     OW 9633   4.527   3.264   0.924
 3199SOL    HW1 9634   4.617   3.278   0.882
 3199SOL    HW2 9635   4.456   3.266   0.853
 3200SOL     OW 9636   4.646   2.365   0.899
 3200SOL    HW1 9637   4.621   2.356   0.803
 3200SOL    HW2 9638   4.694   2.283   0.930
 3201SOL     OW 9639   4.263   1.926   0.512
 3201SOL    HW1 9640   4.182   1.927   0.570
 3201SOL    HW2 9641   4.266   2.009   0.457
 3202SOL     OW 9642   5.158   3.050   0.041
 3202SOL    HW1 9643   5.190   2.974   0.098
 3202SOL    HW2 9644   5.066   3.077   0.071
 3203SOL     OW 9645   4.659   2.098   0.480
 3203SOL    HW1 9646   4.611   2.139   0.402
 3203SOL    HW2 9647   4.758   2.096   0.461
 3204SOL     OW 9648   4.951   3.432   0.793
 3204SOL    HW1 9649   4.972   3.506   0.728
 3204SOL    HW2 9650   5.019   3.432   0.866
 3205SOL     OW 9651   4.183   3.014   0.741
 3205SOL    HW1 9652   4.112   2.987   0.806
 3205SOL    HW2 9653   4.157   2.986   0.648
 3206SOL     OW 9654   4.756   2.411   0.016
 3206SOL    HW1 9655   4.715   2.493  -0.023
 3206SOL    HW2 9656   4.820   2.437   0.089
 3207SOL     OW 9657   3.802   2.418   1.386
 3207SOL    HW1 9658   3.894   2.417   1.345
 3207SOL    HW2 9659   3.796   2.492   1.453
 3208SOL     OW 9660   4.285   2.084   1.147
 3208SOL    HW1 9661   4.323   2.000   1.184
 3208SOL    HW2 9662   4.197   2.103   1.191
 3209SOL     OW 9663   4.590   2.316   0.642
 3209SOL    HW1 9664   4.558   2.388   0.580
 3209SOL    HW2 9665   4.614   2.235   0.589
 3210SOL     OW 9666   4.741   1.901   0.753
 3210SOL    HW1 9667   4.669   1.906   0.684
 3210SOL    HW2 9668   4.717   1.832   0.822
 3211SOL     OW 9669   4.212   3.247   0.174
 3211SOL    HW1 9670   4.125   3.232   0.221
 3211SOL    HW2 9671   4.195   3.273   0.079
 3212SOL     OW 9672   4.251   2.118   0.328
 3212SOL    HW1 9673   4.278   2.059   0.253
 3212SOL    HW2 9674   4.251   2.213   0.297
 3213SOL     OW 9675   4.639   1.951   1.402
 3213SOL    HW1 9676   4.664   1.931   1.307
 3213SOL    HW2 9677   4.711   2.007   1.444
 3214SOL     OW 9678   4.704   2.978   1.719
 3214SOL    HW1 9679   4.605   2.984   1.729
 3214SOL    HW2 9680   4.727   2.898   1.663
 3215SOL     OW 9681   4.429   2.912   0.368
 3215SOL    HW1 9682   4.415   2.919   0.467
 3215SOL    HW2 9683   4.513   2.861   0.350
 3216SOL     OW 9684   4.134   2.675   1.251
 3216SOL    HW1 9685   4.220   2.687   1.301
 3216SOL    HW2 9686   4.092   2.588   1.278
 3217SOL     OW 9687   3.788   3.426   1.331
 3217SOL    HW1 9688   3.742   3.508   1.297
 3217SOL    HW2 9689   3.886   3.445   1.340
 3218SOL     OW 9690   4.091   2.962   0.501
 3218SOL    HW1 9691   4.084   3.045   0.445
 3218SOL    HW2 9692   4.095   2.882   0.441
 3219SOL     OW 9693   4.290   2.399   0.865
 3219SOL    HW1 9694   4.302   2.465   0.791
 3219SOL    HW2 9695   4.336   2.433   0.948
 3220SOL     OW 9696   4.078   3.372   1.329
 3220SOL    HW1 9697   4.057   3.328   1.242
 3220SOL    HW2 9698   4.175   3.398   1.332
 3221SOL     OW 9699   4.126   2.613   1.598
 3221SOL    HW1 9700   4.194   2.668   1.551
 3221SOL    HW2 9701   4.166   2.525   1.625
 3222SOL     OW 9702   4.737   1.967   1.770
 3222SOL    HW1 9703   4.743   2.052   1.718
 3222SOL    HW2 9704   4.769   1.891   1.713
 3223SOL     OW 9705   4.228   1.912   1.740
 3223SOL    HW1 9706   4.186   1.855   1.670
 3223SOL    HW2 9707   4.162   1.981   1.772
 3224SOL     OW 9708   4.297   2.732   1.029
 3224SOL    HW1 9709   4.341   2.821   1.020
 3224SOL    HW2 9710   4.234   2.732   1.106
 3225SOL     OW 9711   4.933   2.387   0.275
 3225SOL    HW1 9712   4.946   2.303   0.329
 3225SOL    HW2 9713   4.904   2.461   0.335
 3226SOL     OW 9714   4.031   2.075   1.231
 3226SOL    HW1 9715   4.008   2.112   1.321
 3226SOL    HW2 9716   4.001   1.980   1.225
 3227SOL     OW 9717   3.761   3.172   1.282
 3227SOL    HW1 9718   3.814   3.123   1.350
 3227SOL    HW2 9719   3.783   3.270   1.287
 3228SOL     OW 9720   4.456   2.496   1.064
 3228SOL    HW1 9721   4.515   2.470   0.988
 3228SOL    HW2 9722   4.428   2.592   1.053
 3229SOL     OW 9723   4.031   1.925   0.618
 3229SOL    HW1 9724   4.020   2.019   0.651
 3229SOL    HW2 9725   4.026   1.862   0.695
 3230SOL     OW 9726   4.747   2.628   0.966
 3230SOL    HW1 9727   4.762   2.649   1.062
 3230SOL    HW2 9728   4.717   2.533   0.957
 3231SOL     OW 9729   4.704   3.435   1.700
 3231SOL    HW1 9730   4.684   3.479   1.612
 3231SOL    HW2 9731   4.743   3.344   1.684
 3232SOL     OW 9732   4.074   2.760   1.804
 3232SOL    HW1 9733   4.150   2.804   1.852
 3232SOL    HW2 9734   4.109   2.713   1.722
 3233SOL     OW 9735   4.043   2.672   0.949
 3233SOL    HW1 9736   4.136   2.708   0.954
 3233SOL    HW2 9737   4.037   2.587   1.001
 3234SOL     OW 9738   4.063   2.371   1.006
 3234SOL    HW1 9739   4.011   2.288   0.989
 3234SOL    HW2 9740   4.140   2.376   0.942
 3235SOL     OW 9741   3.732   3.188   0.200
 3235SOL    HW1 9742   3.639   3.209   0.169
 3235SOL    HW2 9743   3.742   3.089   0.213
 3236SOL     OW 9744   3.812   3.663   0.927
 3236SOL    HW1 9745   3.770   3.577   0.900
 3236SOL    HW2 9746   3.906   3.666   0.893
 3237SOL     OW 9747   4.228   3.430   0.910
 3237SOL    HW1 9748   4.294   3.504   0.919
 3237SOL    HW2 9749   4.272   3.351   0.868
 3238SOL     OW 9750   4.726   2.658   1.238
 3238SOL    HW1 9751   4.767   2.626   1.324
 3238SOL    HW2 9752   4.630   2.631   1.235
 3239SOL     OW 9753   3.764   2.406   1.114
 3239SOL    HW1 9754   3.849   2.373   1.073
 3239SOL    HW2 9755   3.777   2.421   1.212
 3240SOL     OW 9756   3.913   2.382   1.722
 3240SOL    HW1 9757   3.972   2.342   1.652
 3240SOL    HW2 9758   3.855   2.453   1.681
 3241SOL     OW 9759   4.539   2.434   0.325
 3241SOL    HW1 9760   4.546   2.345   0.279
 3241SOL    HW2 9761   4.445   2.468   0.317
 3242SOL     OW 9762   3.976   3.426   1.744
 3242SOL    HW1 9763   3.946   3.483   1.820
 3242SOL    HW2 9764   3.969   3.329   1.770
 3243SOL     OW 9765   4.395   2.326   1.269
 3243SOL    HW1 9766   4.361   2.237   1.239
 3243SOL    HW2 9767   4.421   2.380   1.189
 3244SOL     OW 9768   4.654   3.540   1.465
 3244SOL    HW1 9769   4.630   3.522   1.370
 3244SOL    HW2 9770   4.684   3.634   1.475
 3245SOL     OW 9771   4.197   2.362   0.191
 3245SOL    HW1 9772   4.258   2.442   0.195
 3245SOL    HW2 9773   4.102   2.393   0.198
 3246SOL     OW 9774   3.883   2.999   1.466
 3246SOL    HW1 9775   3.905   2.938   1.542
 3246SOL    HW2 9776   3.893   2.950   1.380
 3247SOL     OW 9777   3.807   3.120   1.022
 3247SOL    HW1 9778   3.802   3.119   1.122
 3247SOL    HW2 9779   3.724   3.079   0.984
 3248SOL     OW 9780   4.412   3.524   1.716
 3248SOL    HW1 9781   4.356   3.605   1.725
 3248SOL    HW2 9782   4.464   3.528   1.630
 3249SOL     OW 9783   4.627   1.948   0.133
 3249SOL    HW1 9784   4.678   1.949   0.047
 3249SOL    HW2 9785   4.683   1.906   0.204
 3250SOL     OW 9786   3.854   3.656   1.851
 3250SOL    HW1 9787   3.813   3.582   1.904
 3250SOL    HW2 9788   3.918   3.707   1.909
 3251SOL     OW 9789   5.004   2.789   0.672
 3251SOL    HW1 9790   5.064   2.708   0.674
 3251SOL    HW2 9791   5.044   2.858   0.612
 3252SOL     OW 9792   4.554   3.135   1.422
 3252SOL    HW1 9793   4.549   3.168   1.517
 3252SOL    HW2 9794   4.468   3.154   1.376
 3253SOL     OW 9795   4.396   3.478   0.154
 3253SOL    HW1 9796   4.405   3.488   0.055
 3253SOL    HW2 9797   4.356   3.389   0.175
 3254SOL     OW 9798   3.987   2.188   0.720
 3254SOL    HW1 9799   3.908   2.239   0.686
 3254SOL    HW2 9800   3.978   2.173   0.818
 3255SOL     OW 9801   4.546   2.864   1.372
 3255SOL    HW1 9802   4.586   2.863   1.280
 3255SOL    HW2 9803   4.556   2.956   1.412
 3256SOL     OW 9804   4.640   2.772   0.291
 3256SOL    HW1 9805   4.703   2.810   0.223
 3256SOL    HW2 9806   4.680   2.689   0.330
 3257SOL     OW 9807   4.096   3.150   1.490
 3257SOL    HW1 9808   4.083   3.243   1.456
 3257SOL    HW2 9809   4.012   3.098   1.477
 3258SOL     OW 9810   4.763   2.960   0.696
 3258SOL    HW1 9811   4.693   2.913   0.750
 3258SOL    HW2 9812   4.822   2.892   0.653
 3259SOL     OW 9813   4.738   2.098   0.971
 3259SOL    HW1 9814   4.730   2.062   0.878
 3259SOL    HW2 9815   4.736   2.022   1.036
 3260SOL     OW 9816   4.314   3.349   0.491
 3260SOL    HW1 9817   4.356   3.291   0.421
 3260SOL    HW2 9818   4.270   3.428   0.447
 3261SOL     OW 9819   3.979   3.210   0.290
 3261SOL    HW1 9820   3.883   3.211   0.263
 3261SOL    HW2 9821   3.991   3.263   0.374
 3262SOL     OW 9822   3.829   2.875   1.726
 3262SOL    HW1 9823   3.752   2.842   1.780
 3262SOL    HW2 9824   3.914   2.845   1.768
 3263SOL     OW 9825   4.396   2.065   1.489
 3263SOL    HW1 9826   4.486   2.049   1.449
 3263SOL    HW2 9827   4.404   2.070   1.588
 3264SOL     OW 9828   3.799   2.207   0.033
 3264SOL    HW1 9829   3.707   2.179   0.004
 3264SOL    HW2 9830   3.830   2.284  -0.023
 3265SOL     OW 9831   3.796   2.028   0.318
 3265SOL    HW1 9832   3.779   2.111   0.264
 3265SOL    HW2 9833   3.886   1.991   0.296
 3266SOL     OW 9834   4.337   2.704   1.431
 3266SOL    HW1 9835   4.393   2.785   1.414
 3266SOL    HW2 9836   4.396   2.624   1.434
 3267SOL     OW 9837   4.440   2.427   1.708
 3267SOL    HW1 9838   4.459   2.492   1.782
 3267SOL    HW2 9839   4.500   2.347   1.717
 3268SOL     OW 9840   4.114   3.603   1.560
 3268SOL    HW1 9841   4.023   3.644   1.558
 3268SOL    HW2 9842   4.107   3.509   1.592
 3269SOL     OW 9843   4.949   2.187   0.449
 3269SOL    HW1 9844   5.014   2.113   0.438
 3269SOL    HW2 9845   4.969   2.237   0.533
 3270SOL     OW 9846   4.318   2.607   0.652
 3270SOL    HW1 9847   4.368   2.692   0.633
 3270SOL    HW2 9848   4.230   2.609   0.604
 3271SOL     OW 9849   4.583   3.236   0.016
 3271SOL    HW1 9850   4.537   3.251   0.104
 3271SOL    HW2 9851   4.627   3.321  -0.014
 3272SOL     OW 9852   4.385   3.652   0.953
 3272SOL    HW1 9853   4.339   3.740   0.940
 3272SOL    HW2 9854   4.484   3.664   0.946
 3273SOL     OW 9855   4.583   2.818   0.861
 3273SOL    HW1 9856   4.637   2.749   0.909
 3273SOL    HW2 9857   4.551   2.887   0.927
 3274SOL     OW 9858   4.807   2.846   0.087
 3274SOL    HW1 9859   4.784   2.899   0.005
 3274SOL    HW2 9860   4.888   2.790   0.068
 3275SOL     OW 9861   3.945   3.176   1.844
 3275SOL    HW1 9862   3.880   3.103   1.823
 3275SOL    HW2 9863   3.949   3.190   1.942
 3276SOL     OW 9864   3.803   3.102   0.653
 3276SOL    HW1 9865   3.802   3.055   0.741
 3276SOL    HW2 9866   3.885   3.074   0.602
 3277SOL     OW 9867   4.396   3.253   1.624
 3277SOL    HW1 9868   4.318   3.203   1.662
 3277SOL    HW2 9869   4.393   3.348   1.655
 3278SOL     OW 9870   4.152   2.286   0.520
 3278SOL    HW1 9871   4.182   2.214   0.458
 3278SOL    HW2 9872   4.113   2.246   0.603
 3279SOL     OW 9873   4.041   2.409   1.280
 3279SOL    HW1 9874   4.079   2.350   1.352
 3279SOL    HW2 9875   4.081   2.383   1.192
 3280SOL     OW 9876   4.536   3.448   0.687
 3280SOL    HW1 9877   4.568   3.458   0.593
 3280SOL    HW2 9878   4.457   3.386   0.689
 3281SOL     OW 9879   4.725   1.896   1.154
 3281SOL    HW1 9880   4.662   1.824   1.123
 3281SOL    HW2 9881   4.818   1.860   1.154
 3282SOL     OW 9882   4.494   3.192   0.301
 3282SOL    HW1 9883   4.448   3.105   0.318
 3282SOL    HW2 9884   4.585   3.189   0.342
 3283SOL     OW 9885   4.342   3.429   1.284
 3283SOL    HW1 9886   4.337   3.511   1.341
 3283SOL    HW2 9887   4.431   3.426   1.239
 3284SOL     OW 9888   3.763   2.939   0.300
 3284SOL    HW1 9889   3.862   2.928   0.291
 3284SOL    HW2 9890   3.723   2.853   0.332
 3285SOL     OW 9891   4.599   3.508   0.337
 3285SOL    HW1 9892   4.522   3.473   0.283
 3285SOL    HW2 9893   4.567   3.579   0.399
 3286SOL     OW 9894   3.954   2.490   1.975
 3286SOL    HW1 9895   3.861   2.488   2.012
 3286SOL    HW2 9896   3.955   2.451   1.883
 3287SOL     OW 9897   3.949   2.137   2.858
 3287SOL    HW1 9898   3.984   2.120   2.950
 3287SOL    HW2 9899   3.861   2.092   2.846
 3288SOL     OW 9900   3.743   2.230   2.509
 3288SOL    HW1 9901   3.661   2.273   2.548
 3288SOL    HW2 9902   3.715   2.157   2.446
 3289SOL     OW 9903   4.293   3.137   3.027
 3289SOL    HW1 9904   4.200   3.130   2.990
 3289SOL    HW2 9905   4.304   3.226   3.071
 3290SOL     OW 9906   4.492   3.006   2.885
 3290SOL    HW1 9907   4.414   3.023   2.945
 3290SOL    HW2 9908   4.526   3.093   2.849
 3291SOL     OW 9909   4.574   2.660   3.685
 3291SOL    HW1 9910   4.570   2.736   3.750
 3291SOL    HW2 9911   4.596   2.696   3.594
 3292SOL     OW 9912   4.409   2.874   2.527
 3292SOL    HW1 9913   4.478   2.858   2.597
 3292SOL    HW2 9914   4.336   2.931   2.565
 3293SOL     OW 9915   4.410   3.023   3.665
 3293SOL    HW1 9916   4.470   3.102   3.679
 3293SOL    HW2 9917   4.324   3.054   3.624
 3294SOL     OW 9918   4.059   3.297   2.923
 3294SOL    HW1 9919   3.981   3.266   2.870
 3294SOL    HW2 9920   4.117   3.355   2.866
 3295SOL     OW 9921   4.162   2.254   3.361
 3295SOL    HW1 9922   4.244   2.198   3.370
 3295SOL    HW2 9923   4.081   2.196   3.365
 3296SOL     OW 9924   3.955   3.575   2.345
 3296SOL    HW1 9925   3.989   3.652   2.399
 3296SOL    HW2 9926   3.999   3.575   2.255
 3297SOL     OW 9927   3.954   3.296   2.400
 3297SOL    HW1 9928   3.928   3.392   2.400
 3297SOL    HW2 9929   3.883   3.242   2.445
 3298SOL     OW 9930   3.964   2.953   2.748
 3298SOL    HW1 9931   3.978   2.869   2.800
 3298SOL    HW2 9932   3.909   3.017   2.803
 3299SOL     OW 9933   4.344   3.648   3.301
 3299SOL    HW1 9934   4.252   3.631   3.336
 3299SOL    HW2 9935   4.372   3.740   3.327
 3300SOL     OW 9936   4.330   2.826   1.985
 3300SOL    HW1 9937   4.337   2.910   1.931
 3300SOL    HW2 9938   4.376   2.839   2.073
 3301SOL     OW 9939   3.846   2.505   2.425
 3301SOL    HW1 9940   3.801   2.417   2.442
 3301SOL    HW2 9941   3.845   2.559   2.509
 3302SOL     OW 9942   3.751   3.458   1.979
 3302SOL    HW1 9943   3.732   3.362   2.000
 3302SOL    HW2 9944   3.718   3.516   2.054
 3303SOL     OW 9945   3.837   2.599   3.459
 3303SOL    HW1 9946   3.925   2.586   3.504
 3303SOL    HW2 9947   3.824   2.696   3.437
 3304SOL     OW 9948   4.337   3.227   2.588
 3304SOL    HW1 9949   4.288   3.140   2.597
 3304SOL    HW2 9950   4.314   3.270   2.501
 3305SOL     OW 9951   4.533   1.866   2.364
 3305SOL    HW1 9952   4.573   1.957   2.355
 3305SOL    HW2 9953   4.433   1.874   2.370
 3306SOL     OW 9954   3.921   2.838   3.126
 3306SOL    HW1 9955   4.010   2.793   3.112
 3306SOL    HW2 9956   3.848   2.773   3.107
 3307SOL     OW 9957   4.041   2.113   3.663
 3307SOL    HW1 9958   4.112   2.184   3.669
 3307SOL    HW2 9959   3.953   2.152   3.691
 3308SOL     OW 9960   4.322   2.591   2.132
 3308SOL    HW1 9961   4.346   2.660   2.064
 3308SOL    HW2 9962   4.244   2.624   2.186
 3309SOL     OW 9963   4.531   2.467   3.327
 3309SOL    HW1 9964   4.484   2.464   3.416
 3309SOL    HW2 9965   4.480   2.412   3.261
 3310SOL     OW 9966   4.697   2.752   3.434
 3310SOL    HW1 9967   4.743   2.668   3.405
 3310SOL    HW2 9968   4.641   2.786   3.359
 3311SOL     OW 9969   4.715   2.272   3.104
 3311SOL    HW1 9970   4.638   2.306   3.158
 3311SOL    HW2 9971   4.681   2.221   3.025
 3312SOL     OW 9972   4.765   2.563   2.291
 3312SOL    HW1 9973   4.791   2.559   2.387
 3312SOL    HW2 9974   4.680   2.512   2.277
 3313SOL     OW 9975   3.800   2.673   2.651
 3313SOL    HW1 9976   3.899   2.661   2.660
 3313SOL    HW2 9977   3.776   2.768   2.672
 3314SOL     OW 9978   3.854   3.683   3.433
 3314SOL    HW1 9979   3.844   3.668   3.532
 3314SOL    HW2 9980   3.768   3.719   3.397
 3315SOL     OW 9981   4.589   2.210   2.057
 3315SOL    HW1 9982   4.648   2.273   2.008
 3315SOL    HW2 9983   4.608   2.116   2.028
 3316SOL     OW 9984   4.274   2.058   2.747
 3316SOL    HW1 9985   4.269   2.053   2.847
 3316SOL    HW2 9986   4.276   2.154   2.718
 3317SOL     OW 9987   4.732   3.318   2.339
 3317SOL    HW1 9988   4.686   3.390   2.287
 3317SOL    HW2 9989   4.728   3.338   2.437
 3318SOL     OW 9990   4.075   3.663   2.715
 3318SOL    HW1 9991   4.125   3.577   2.721
 3318SOL    HW2 9992   4.140   3.740   2.712
 3319SOL     OW 9993   4.045   2.805   2.104
 3319SOL    HW1 9994   4.127   2.844   2.062
 3319SOL    HW2 9995   4.018   2.723   2.055
 3320SOL     OW 9996   4.185   3.128   3.589
 3320SOL    HW1 9997   4.135   3.129   3.503
 3320SOL    HW2 9998   4.122   3.110   3.665
 3321SOL     OW 9999   3.926   2.147   3.360
 3321SOL    HW110000   3.846   2.207   3.347
 3321SOL    HW210001   3.916   2.098   3.446
 3322SOL     OW10002   4.188   3.605   2.185
 3322SOL    HW110003   4.221   3.644   2.271
 3322SOL    HW210004   4.264   3.598   2.120
 3323SOL     OW10005   3.973   3.647   3.103
 3323SOL    HW110006   4.030   3.582   3.153
 3323SOL    HW210007   3.957   3.614   3.010
 3324SOL     OW10008   4.106   2.562   2.342
 3324SOL    HW110009   4.151   2.472   2.339
 3324SOL    HW210010   4.012   2.551   2.375
 3325SOL     OW10011   4.338   1.984   1.979
 3325SOL    HW110012   4.436   1.962   1.986
 3325SOL    HW210013   4.307   1.967   1.886
 3326SOL     OW10014   4.505   2.126   3.611
 3326SOL    HW110015   4.572   2.065   3.654
 3326SOL    HW210016   4.432   2.145   3.676
 3327SOL     OW10017   4.612   3.376   3.057
 3327SOL    HW110018   4.589   3.351   2.963
 3327SOL    HW210019   4.673   3.307   3.096
 3328SOL     OW10020   4.527   3.264   2.786
 3328SOL    HW110021   4.617   3.278   2.744
 3328SOL    HW210022   4.456   3.266   2.715
 3329SOL     OW10023   4.646   2.365   2.761
 3329SOL    HW110024   4.621   2.356   2.665
 3329SOL    HW210025   4.694   2.283   2.792
 3330SOL     OW10026   4.263   1.926   2.374
 3330SOL    HW110027   4.182   1.927   2.432
 3330SOL    HW210028   4.266   2.009   2.319
 3331SOL     OW10029   4.021   1.897   2.033
 3331SOL    HW110030   4.070   1.981   2.012
 3331SOL    HW210031   4.083   1.832   2.078
 3332SOL     OW10032   4.659   2.098   2.342
 3332SOL    HW110033   4.611   2.139   2.264
 3332SOL    HW210034   4.758   2.096   2.323
 3333SOL     OW10035   4.951   3.432   2.655
 3333SOL    HW110036   4.972   3.506   2.590
 3333SOL    HW210037   5.019   3.432   2.728
 3334SOL     OW10038   4.183   3.014   2.603
 3334SOL    HW110039   4.112   2.987   2.668
 3334SOL    HW210040   4.157   2.986   2.510
 3335SOL     OW10041   4.756   2.411   1.878
 3335SOL    HW110042   4.715   2.493   1.839
 3335SOL    HW210043   4.820   2.437   1.951
 3336SOL     OW10044   3.802   2.418   3.248
 3336SOL    HW110045   3.894   2.417   3.207
 3336SOL    HW210046   3.796   2.492   3.315
 3337SOL     OW10047   4.285   2.084   3.009
 3337SOL    HW110048   4.323   2.000   3.046
 3337SOL    HW210049   4.197   2.103   3.053
 3338SOL     OW10050   4.590   2.316   2.504
 3338SOL    HW110051   4.558   2.388   2.442
 3338SOL    HW210052   4.614   2.235   2.451
 3339SOL     OW10053   4.741   1.901   2.615
 3339SOL    HW110054   4.669   1.906   2.546
 3339SOL    HW210055   4.717   1.832   2.684
 3340SOL     OW10056   4.212   3.247   2.036
 3340SOL    HW110057   4.125   3.232   2.083
 3340SOL    HW210058   4.195   3.273   1.941
 3341SOL     OW10059   4.251   2.118   2.190
 3341SOL    HW110060   4.278   2.059   2.115
 3341SOL    HW210061   4.251   2.213   2.159
 3342SOL     OW10062   4.639   1.951   3.264
 3342SOL    HW110063   4.664   1.931   3.169
 3342SOL    HW210064   4.711   2.007   3.306
 3343SOL     OW10065   4.704   2.978   3.581
 3343SOL    HW110066   4.605   2.984   3.591
 3343SOL    HW210067   4.727   2.898   3.525
 3344SOL     OW10068   4.429   2.912   2.230
 3344SOL    HW110069   4.415   2.919   2.329
 3344SOL    HW210070   4.513   2.861   2.212
 3345SOL     OW10071   4.134   2.675   3.113
 3345SOL    HW110072   4.220   2.687   3.163
 3345SOL    HW210073   4.092   2.588   3.140
 3346SOL     OW10074   3.788   3.426   3.193
 3346SOL    HW110075   3.742   3.508   3.159
 3346SOL    HW210076   3.886   3.445   3.202
 3347SOL     OW10077   4.091   2.962   2.363
 3347SOL    HW110078   4.084   3.045   2.307
 3347SOL    HW210079   4.095   2.882   2.303
 3348SOL     OW10080   4.290   2.399   2.727
 3348SOL    HW110081   4.302   2.465   2.653
 3348SOL    HW210082   4.336   2.433   2.810
 3349SOL     OW10083   4.078   3.372   3.191
 3349SOL    HW110084   4.057   3.328   3.104
 3349SOL    HW210085   4.175   3.398   3.194
 3350SOL     OW10086   4.126   2.613   3.460
 3350SOL    HW110087   4.194   2.668   3.413
 3350SOL    HW210088   4.166   2.525   3.487
 3351SOL     OW10089   4.737   1.967   3.632
 3351SOL    HW110090   4.743   2.052   3.580
 3351SOL    HW210091   4.769   1.891   3.575
 3352SOL     OW10092   4.228   1.912   3.602
 3352SOL    HW110093   4.186   1.855   3.532
 3352SOL    HW210094   4.162   1.981   3.634
 3353SOL     OW10095   4.297   2.732   2.891
 3353SOL    HW110096   4.341   2.821   2.882
 3353SOL    HW210097   4.234   2.732   2.968
 3354SOL     OW10098   4.933   2.387   2.137
 3354SOL    HW110099   4.946   2.303   2.191
 3354SOL    HW210100   4.904   2.461   2.197
 3355SOL     OW10101   4.031   2.075   3.093
 3355SOL    HW110102   4.008   2.112   3.183
 3355SOL    HW210103   4.001   1.980   3.087
 3356SOL     OW10104   3.761   3.172   3.144
 3356SOL    HW110105   3.814   3.123   3.212
 3356SOL    HW210106   3.783   3.270   3.149
 3357SOL     OW10107   4.456   2.496   2.926
 3357SOL    HW110108   4.515   2.470   2.850
 3357SOL    HW210109   4.428   2.592   2.915
 3358SOL     OW10110   4.031   1.925   2.480
 3358SOL    HW110111   4.020   2.019   2.513
 3358SOL    HW210112   4.026   1.862   2.557
 3359SOL     OW10113   4.747   2.628   2.828
 3359SOL    HW110114   4.762   2.649   2.924
 3359SOL    HW210115   4.717   2.533   2.819
 3360SOL     OW10116   4.704   3.435   3.562
 3360SOL    HW110117   4.684   3.479   3.474
 3360SOL    HW210118   4.743   3.344   3.546
 3361SOL     OW10119   4.074   2.760   3.666
 3361SOL    HW110120   4.150   2.804   3.714
 3361SOL    HW210121   4.109   2.713   3.584
 3362SOL     OW10122   4.043   2.672   2.811
 3362SOL    HW110123   4.136   2.708   2.816
 3362SOL    HW210124   4.037   2.587   2.863
 3363SOL     OW10125   4.063   2.371   2.868
 3363SOL    HW110126   4.011   2.288   2.851
 3363SOL    HW210127   4.140   2.376   2.804
 3364SOL     OW10128   3.732   3.188   2.062
 3364SOL    HW110129   3.639   3.209   2.031
 3364SOL    HW210130   3.742   3.089   2.075
 3365SOL     OW10131   3.812   3.663   2.789
 3365SOL    HW110132   3.770   3.577   2.762
 3365SOL    HW210133   3.906   3.666   2.755
 3366SOL     OW10134   4.228   3.430   2.772
 3366SOL    HW110135   4.294   3.504   2.781
 3366SOL    HW210136   4.272   3.351   2.730
 3367SOL     OW10137   4.726   2.658   3.100
 3367SOL    HW110138   4.767   2.626   3.186
 3367SOL    HW210139   4.630   2.631   3.097
 3368SOL     OW10140   3.764   2.406   2.976
 3368SOL    HW110141   3.849   2.373   2.935
 3368SOL    HW210142   3.777   2.421   3.074
 3369SOL     OW10143   3.913   2.382   3.584
 3369SOL    HW110144   3.972   2.342   3.514
 3369SOL    HW210145   3.855   2.453   3.543
 3370SOL     OW10146   4.539   2.434   2.187
 3370SOL    HW110147   4.546   2.345   2.141
 3370SOL    HW210148   4.445   2.468   2.179
 3371SOL     OW10149   3.976   3.426   3.606
 3371SOL    HW110150   3.946   3.483   3.682
 3371SOL    HW210151   3.969   3.329   3.632
 3372SOL     OW10152   4.395   2.326   3.131
 3372SOL    HW110153   4.361   2.237   3.101
 3372SOL    HW210154   4.421   2.380   3.051
 3373SOL     OW10155   4.654   3.540   3.327
 3373SOL    HW110156   4.630   3.522   3.232
 3373SOL    HW210157   4.684   3.634   3.337
 3374SOL     OW10158   4.197   2.362   2.053
 3374SOL    HW110159   4.258   2.442   2.057
 3374SOL    HW210160   4.102   2.393   2.060
 3375SOL     OW10161   3.883   2.999   3.328
 3375SOL    HW110162   3.905   2.938   3.404
 3375SOL    HW210163   3.893   2.950   3.242
 3376SOL     OW10164   3.807   3.120   2.884
 3376SOL    HW110165   3.802   3.119   2.984
 3376SOL    HW210166   3.724   3.079   2.846
 3377SOL     OW10167   4.412   3.524   3.578
 3377SOL    HW110168   4.356   3.605   3.587
 3377SOL    HW210169   4.464   3.528   3.492
 3378SOL     OW10170   3.854   3.656   3.713
 3378SOL    HW110171   3.813   3.582   3.766
 3378SOL    HW210172   3.918   3.707   3.771
 3379SOL     OW10173   5.004   2.789   2.534
 3379SOL    HW110174   5.064   2.708   2.536
 3379SOL    HW210175   5.044   2.858   2.474
 3380SOL     OW10176   4.554   3.135   3.284
 3380SOL    HW110177   4.549   3.168   3.379
 3380SOL    HW210178   4.468   3.154   3.238
 3381SOL     OW10179   4.396   3.478   2.016
 3381SOL    HW110180   4.405   3.488   1.917
 3381SOL    HW210181   4.356   3.389   2.037
 3382SOL     OW10182   3.987   2.188   2.582
 3382SOL    HW110183   3.908   2.239   2.548
 3382SOL    HW210184   3.978   2.173   2.680
 3383SOL     OW10185   4.546   2.864   3.234
 3383SOL    HW110186   4.586   2.863   3.142
 3383SOL    HW210187   4.556   2.956   3.274
 3384SOL     OW10188   4.640   2.772   2.153
 3384SOL    HW110189   4.703   2.810   2.085
 3384SOL    HW210190   4.680   2.689   2.192
 3385SOL     OW10191   4.096   3.150   3.352
 3385SOL    HW110192   4.083   3.243   3.318
 3385SOL    HW210193   4.012   3.098   3.339
 3386SOL     OW10194   4.763   2.960   2.558
 3386SOL    HW110195   4.693   2.913   2.612
 3386SOL    HW210196   4.822   2.892   2.515
 3387SOL     OW10197   4.738   2.098   2.833
 3387SOL    HW110198   4.730   2.062   2.740
 3387SOL    HW210199   4.736   2.022   2.898
 3388SOL     OW10200   4.314   3.349   2.353
 3388SOL    HW110201   4.356   3.291   2.283
 3388SOL    HW210202   4.270   3.428   2.309
 3389SOL     OW10203   3.979   3.210   2.152
 3389SOL    HW110204   3.883   3.211   2.125
 3389SOL    HW210205   3.991   3.263   2.236
 3390SOL     OW10206   3.829   2.875   3.588
 3390SOL    HW110207   3.752   2.842   3.642
 3390SOL    HW210208   3.914   2.845   3.630
 3391SOL     OW10209   4.396   2.065   3.351
 3391SOL    HW110210   4.486   2.049   3.311
 3391SOL    HW210211   4.404   2.070   3.450
 3392SOL     OW10212   3.799   2.207   1.895
 3392SOL    HW110213   3.707   2.179   1.866
 3392SOL    HW210214   3.830   2.284   1.839
 3393SOL     OW10215   3.796   2.028   2.180
 3393SOL    HW110216   3.779   2.111   2.126
 3393SOL    HW210217   3.886   1.991   2.158
 3394SOL     OW10218   4.337   2.704   3.293
 3394SOL    HW110219   4.393   2.785   3.276
 3394SOL    HW210220   4.396   2.624   3.296
 3395SOL     OW10221   4.440   2.427   3.570
 3395SOL    HW110222   4.459   2.492   3.644
 3395SOL    HW210223   4.500   2.347   3.579
 3396SOL     OW10224   4.114   3.603   3.422
 3396SOL    HW110225   4.023   3.644   3.420
 3396SOL    HW210226   4.107   3.509   3.454
 3397SOL     OW10227   4.949   2.187   2.311
 3397SOL    HW110228   5.014   2.113   2.300
 3397SOL    HW210229   4.969   2.237   2.395
 3398SOL     OW10230   4.318   2.607   2.514
 3398SOL    HW110231   4.368   2.692   2.495
 3398SOL    HW210232   4.230   2.609   2.466
 3399SOL     OW10233   4.583   3.236   1.878
 3399SOL    HW110234   4.537   3.251   1.966
 3399SOL    HW210235   4.627   3.321   1.848
 3400SOL     OW10236   4.385   3.652   2.815
 3400SOL    HW110237   4.339   3.740   2.802
 3400SOL    HW210238   4.484   3.664   2.808
 3401SOL     OW10239   4.583   2.818   2.723
 3401SOL    HW110240   4.637   2.749   2.771
 3401SOL    HW210241   4.551   2.887   2.789
 3402SOL     OW10242   3.945   3.176   3.706
 3402SOL    HW110243   3.880   3.103   3.685
 3402SOL    HW210244   3.949   3.190   3.804
 3403SOL     OW10245   3.803   3.102   2.515
 3403SOL    HW110246   3.802   3.055   2.603
 3403SOL    HW210247   3.885   3.074   2.464
 3404SOL     OW10248   4.396   3.253   3.486
 3404SOL    HW110249   4.318   3.203   3.524
 3404SOL    HW210250   4.393   3.348   3.517
 3405SOL     OW10251   4.152   2.286   2.382
 3405SOL    HW110252   4.182   2.214   2.320
 3405SOL    HW210253   4.113   2.246   2.465
 3406SOL     OW10254   4.041   2.409   3.142
 3406SOL    HW110255   4.079   2.350   3.214
 3406SOL    HW210256   4.081   2.383   3.054
 3407SOL     OW10257   4.536   3.448   2.549
 3407SOL    HW110258   4.568   3.458   2.455
 3407SOL    HW210259   4.457   3.386   2.551
 3408SOL     OW10260   4.725   1.896   3.016
 3408SOL    HW110261   4.662   1.824   2.985
 3408SOL    HW210262   4.818   1.860   3.016
 3409SOL     OW10263   4.494   3.192   2.163
 3409SOL    HW110264   4.448   3.105   2.180
 3409SOL    HW210265   4.585   3.189   2.204
 3410SOL     OW10266   4.342   3.429   3.146
 3410SOL    HW110267   4.337   3.511   3.203
 3410SOL    HW210268   4.431   3.426   3.101
 3411SOL     OW10269   3.763   2.939   2.162
 3411SOL    HW110270   3.862   2.928   2.153
 3411SOL    HW210271   3.723   2.853   2.194
 3412SOL     OW10272   4.599   3.508   2.199
 3412SOL    HW110273   4.522   3.473   2.145
 3412SOL    HW210274   4.567   3.579   2.261
 3413SOL     OW10275   3.954   2.490   3.837
 3413SOL    HW110276   3.861   2.488   3.874
 3413SOL    HW210277   3.955   2.451   3.745
 3414SOL     OW10278   3.949   2.137   4.720
 3414SOL    HW110279   3.984   2.120   4.812
 3414SOL    HW210280   3.861   2.092   4.708
 3415SOL     OW10281   3.743   2.230   4.371
 3415SOL    HW110282   3.661   2.273   4.410
 3415SOL    HW210283   3.715   2.157   4.308
 3416SOL     OW10284   4.492   3.006   4.747
 3416SOL    HW110285   4.414   3.023   4.807
 3416SOL    HW210286   4.526   3.093   4.711
 3417SOL     OW10287   4.409   2.874   4.389
 3417SOL    HW110288   4.478   2.858   4.459
 3417SOL    HW210289   4.336   2.931   4.427
 3418SOL     OW10290   4.059   3.297   4.785
 3418SOL    HW110291   3.981   3.266   4.732
 3418SOL    HW210292   4.117   3.355   4.728
 3419SOL     OW10293   3.955   3.575   4.207
 3419SOL    HW110294   3.989   3.652   4.261
 3419SOL    HW210295   3.999   3.575   4.117
 3420SOL     OW10296   3.954   3.296   4.262
 3420SOL    HW110297   3.928   3.392   4.262
 3420SOL    HW210298   3.883   3.242   4.307
 3421SOL     OW10299   3.964   2.953   4.610
 3421SOL    HW110300   3.978   2.869   4.662
 3421SOL    HW210301   3.909   3.017   4.665
 3422SOL     OW10302   4.330   2.826   3.847
 3422SOL    HW110303   4.337   2.910   3.793
 3422SOL    HW210304   4.376   2.839   3.935
 3423SOL     OW10305   3.846   2.505   4.287
 3423SOL    HW110306   3.801   2.417   4.304
 3423SOL    HW210307   3.845   2.559   4.371
 3424SOL     OW10308   3.751   3.458   3.841
 3424SOL    HW110309   3.732   3.362   3.862
 3424SOL    HW210310   3.718   3.516   3.916
 3425SOL     OW10311   4.337   3.227   4.450
 3425SOL    HW110312   4.288   3.140   4.459
 3425SOL    HW210313   4.314   3.270   4.363
 3426SOL     OW10314   4.533   1.866   4.226
 3426SOL    HW110315   4.573   1.957   4.217
 3426SOL    HW210316   4.433   1.874   4.232
 3427SOL     OW10317   4.322   2.591   3.994
 3427SOL    HW110318   4.346   2.660   3.926
 3427SOL    HW210319   4.244   2.624   4.048
 3428SOL     OW10320   4.765   2.563   4.153
 3428SOL    HW110321   4.791   2.559   4.249
 3428SOL    HW210322   4.680   2.512   4.139
 3429SOL     OW10323   3.800   2.673   4.513
 3429SOL    HW110324   3.899   2.661   4.522
 3429SOL    HW210325   3.776   2.768   4.534
 3430SOL     OW10326   4.589   2.210   3.919
 3430SOL    HW110327   4.648   2.273   3.870
 3430SOL    HW210328   4.608   2.116   3.890
 3431SOL     OW10329   4.274   2.058   4.609
 3431SOL    HW110330   4.269   2.053   4.709
 3431SOL    HW210331   4.276   2.154   4.580
 3432SOL     OW10332   4.732   3.318   4.201
 3432SOL    HW110333   4.686   3.390   4.149
 3432SOL    HW210334   4.728   3.338   4.299
 3433SOL     OW10335   4.075   3.663   4.577
 3433SOL    HW110336   4.125   3.577   4.583
 3433SOL    HW210337   4.140   3.740   4.574
 3434SOL     OW10338   4.045   2.805   3.966
 3434SOL    HW110339   4.127   2.844   3.924
 3434SOL    HW210340   4.018   2.723   3.917
 3435SOL     OW10341   4.188   3.605   4.047
 3435SOL    HW110342   4.221   3.644   4.133
 3435SOL    HW210343   4.264   3.598   3.982
 3436SOL     OW10344   3.973   3.647   4.965
 3436SOL    HW110345   4.030   3.582   5.015
 3436SOL    HW210346   3.957   3.614   4.872
 3437SOL     OW10347   4.106   2.562   4.204
 3437SOL    HW110348   4.151   2.472   4.201
 3437SOL    HW210349   4.012   2.551   4.237
 3438SOL     OW10350   4.338   1.984   3.841
 3438SOL    HW110351   4.436   1.962   3.848
 3438SOL    HW210352   4.307   1.967   3.748
 3439SOL     OW10353   4.527   3.264   4.648
 3439SOL    HW110354   4.617   3.278   4.606
 3439SOL    HW210355   4.456   3.266   4.577
 3440SOL     OW10356   4.646   2.365   4.623
 3440SOL    HW110357   4.621   2.356   4.527
 3440SOL    HW210358   4.694   2.283   4.654
 3441SOL     OW10359   4.263   1.926   4.236
 3441SOL    HW110360   4.182   1.927   4.294
 3441SOL    HW210361   4.266   2.009   4.181
 3442SOL     OW10362   4.021   1.897   3.895
 3442SOL    HW110363   4.070   1.981   3.874
 3442SOL    HW210364   4.083   1.832   3.940
 3443SOL     OW10365   4.659   2.098   4.204
 3443SOL    HW110366   4.611   2.139   4.126
 3443SOL    HW210367   4.758   2.096   4.185
 3444SOL     OW10368   4.951   3.432   4.517
 3444SOL    HW110369   4.972   3.506   4.452
 3444SOL    HW210370   5.019   3.432   4.590
 3445SOL     OW10371   4.183   3.014   4.465
 3445SOL    HW110372   4.112   2.987   4.530
 3445SOL    HW210373   4.157   2.986   4.372
 3446SOL     OW10374   4.756   2.411   3.740
 3446SOL    HW110375   4.715   2.493   3.701
 3446SOL    HW210376   4.820   2.437   3.813
 3447SOL     OW10377   4.590   2.316   4.366
 3447SOL    HW110378   4.558   2.388   4.304
 3447SOL    HW210379   4.614   2.235   4.313
 3448SOL     OW10380   4.741   1.901   4.477
 3448SOL    HW110381   4.669   1.906   4.408
 3448SOL    HW210382   4.717   1.832   4.546
 3449SOL     OW10383   4.212   3.247   3.898
 3449SOL    HW110384   4.125   3.232   3.945
 3449SOL    HW210385   4.195   3.273   3.803
 3450SOL     OW10386   4.251   2.118   4.052
 3450SOL    HW110387   4.278   2.059   3.977
 3450SOL    HW210388   4.251   2.213   4.021
 3451SOL     OW10389   4.429   2.912   4.092
 3451SOL    HW110390   4.415   2.919   4.191
 3451SOL    HW210391   4.513   2.861   4.074
 3452SOL     OW10392   4.091   2.962   4.225
 3452SOL    HW110393   4.084   3.045   4.169
 3452SOL    HW210394   4.095   2.882   4.165
 3453SOL     OW10395   4.290   2.399   4.589
 3453SOL    HW110396   4.302   2.465   4.515
 3453SOL    HW210397   4.336   2.433   4.672
 3454SOL     OW10398   4.297   2.732   4.753
 3454SOL    HW110399   4.341   2.821   4.744
 3454SOL    HW210400   4.234   2.732   4.830
 3455SOL     OW10401   4.933   2.387   3.999
 3455SOL    HW110402   4.946   2.303   4.053
 3455SOL    HW210403   4.904   2.461   4.059
 3456SOL     OW10404   4.031   2.075   4.955
 3456SOL    HW110405   4.008   2.112   5.045
 3456SOL    HW210406   4.001   1.980   4.949
 3457SOL     OW10407   4.456   2.496   4.788
 3457SOL    HW110408   4.515   2.470   4.712
 3457SOL    HW210409   4.428   2.592   4.777
 3458SOL     OW10410   4.031   1.925   4.342
 3458SOL    HW110411   4.020   2.019   4.375
 3458SOL    HW210412   4.026   1.862   4.419
 3459SOL     OW10413   4.043   2.672   4.673
 3459SOL    HW110414   4.136   2.708   4.678
 3459SOL    HW210415   4.037   2.587   4.725
 3460SOL     OW10416   4.063   2.371   4.730
 3460SOL    HW110417   4.011   2.288   4.713
 3460SOL    HW210418   4.140   2.376   4.666
 3461SOL     OW10419   3.732   3.188   3.924
 3461SOL    HW110420   3.639   3.209   3.893
 3461SOL    HW210421   3.742   3.089   3.937
 3462SOL     OW10422   3.812   3.663   4.651
 3462SOL    HW110423   3.770   3.577   4.624
 3462SOL    HW210424   3.906   3.666   4.617
 3463SOL     OW10425   4.228   3.430   4.634
 3463SOL    HW110426   4.294   3.504   4.643
 3463SOL    HW210427   4.272   3.351   4.592
 3464SOL     OW10428   4.726   2.658   4.962
 3464SOL    HW110429   4.767   2.626   5.048
 3464SOL    HW210430   4.630   2.631   4.959
 3465SOL     OW10431   4.539   2.434   4.049
 3465SOL    HW110432   4.546   2.345   4.003
 3465SOL    HW210433   4.445   2.468   4.041
 3466SOL     OW10434   4.395   2.326   4.993
 3466SOL    HW110435   4.361   2.237   4.963
 3466SOL    HW210436   4.421   2.380   4.913
 3467SOL     OW10437   4.197   2.362   3.915
 3467SOL    HW110438   4.258   2.442   3.919
 3467SOL    HW210439   4.102   2.393   3.922
 3468SOL     OW10440   3.807   3.120   4.746
 3468SOL    HW110441   3.802   3.119   4.846
 3468SOL    HW210442   3.724   3.079   4.708
 3469SOL     OW10443   5.004   2.789   4.396
 3469SOL    HW110444   5.064   2.708   4.398
 3469SOL    HW210445   5.044   2.858   4.336
 3470SOL     OW10446   4.396   3.478   3.878
 3470SOL    HW110447   4.405   3.488   3.779
 3470SOL    HW210448   4.356   3.389   3.899
 3471SOL     OW10449   3.987   2.188   4.444
 3471SOL    HW110450   3.908   2.239   4.410
 3471SOL    HW210451   3.978   2.173   4.542
 3472SOL     OW10452   4.640   2.772   4.015
 3472SOL    HW110453   4.703   2.810   3.947
 3472SOL    HW210454   4.680   2.689   4.054
 3473SOL     OW10455   4.763   2.960   4.420
 3473SOL    HW110456   4.693   2.913   4.474
 3473SOL    HW210457   4.822   2.892   4.377
 3474SOL     OW10458   4.314   3.349   4.215
 3474SOL    HW110459   4.356   3.291   4.145
 3474SOL    HW210460   4.270   3.428   4.171
 3475SOL     OW10461   3.979   3.210   4.014
 3475SOL    HW110462   3.883   3.211   3.987
 3475SOL    HW210463   3.991   3.263   4.098
 3476SOL     OW10464   3.799   2.207   3.757
 3476SOL    HW110465   3.707   2.179   3.728
 3476SOL    HW210466   3.830   2.284   3.701
 3477SOL     OW10467   3.796   2.028   4.042
 3477SOL    HW110468   3.779   2.111   3.988
 3477SOL    HW210469   3.886   1.991   4.020
 3478SOL     OW10470   4.949   2.187   4.173
 3478SOL    HW110471   5.014   2.113   4.162
 3478SOL    HW210472   4.969   2.237   4.257
 3479SOL     OW10473   4.318   2.607   4.376
 3479SOL    HW110474   4.368   2.692   4.357
 3479SOL    HW210475   4.230   2.609   4.328
 3480SOL     OW10476   4.583   3.236   3.740
 3480SOL    HW110477   4.537   3.251   3.828
 3480SOL    HW210478   4.627   3.321   3.710
 3481SOL     OW10479   4.385   3.652   4.677
 3481SOL    HW110480   4.339   3.740   4.664
 3481SOL    HW210481   4.484   3.664   4.670
 3482SOL     OW10482   4.583   2.818   4.585
 3482SOL    HW110483   4.637   2.749   4.633
 3482SOL    HW210484   4.551   2.887   4.651
 3483SOL     OW10485   3.803   3.102   4.377
 3483SOL    HW110486   3.802   3.055   4.465
 3483SOL    HW210487   3.885   3.074   4.326
 3484SOL     OW10488   4.152   2.286   4.244
 3484SOL    HW110489   4.182   2.214   4.182
 3484SOL    HW210490   4.113   2.246   4.327
 3485SOL     OW10491   4.536   3.448   4.411
 3485SOL    HW110492   4.568   3.458   4.317
 3485SOL    HW210493   4.457   3.386   4.413
 3486SOL     OW10494   4.494   3.192   4.025
 3486SOL    HW110495   4.448   3.105   4.042
 3486SOL    HW210496   4.585   3.189   4.066
 3487SOL     OW10497   3.763   2.939   4.024
 3487SOL    HW110498   3.862   2.928   4.015
 3487SOL    HW210499   3.723   2.853   4.056
 3488SOL     OW10500   4.599   3.508   4.061
 3488SOL    HW110501   4.522   3.473   4.007
 3488SOL    HW210502   4.567   3.579   4.123
 3489SOL     OW10503   3.954   4.352   0.113
 3489SOL    HW110504   3.861   4.350   0.150
 3489SOL    HW210505   3.955   4.313   0.021
 3490SOL     OW10506   3.949   3.999   0.996
 3490SOL    HW110507   3.984   3.982   1.088
 3490SOL    HW210508   3.861   3.954   0.984
 3491SOL     OW10509   3.743   4.092   0.647
 3491SOL    HW110510   3.661   4.135   0.686
 3491SOL    HW210511   3.715   4.019   0.584
 3492SOL     OW10512   4.492   4.868   1.023
 3492SOL    HW110513   4.414   4.885   1.083
 3492SOL    HW210514   4.526   4.955   0.987
 3493SOL     OW10515   4.574   4.522   1.823
 3493SOL    HW110516   4.570   4.598   1.888
 3493SOL    HW210517   4.596   4.558   1.732
 3494SOL     OW10518   4.409   4.736   0.665
 3494SOL    HW110519   4.478   4.720   0.735
 3494SOL    HW210520   4.336   4.793   0.703
 3495SOL     OW10521   4.162   4.116   1.499
 3495SOL    HW110522   4.244   4.060   1.508
 3495SOL    HW210523   4.081   4.058   1.503
 3496SOL     OW10524   3.964   4.815   0.886
 3496SOL    HW110525   3.978   4.731   0.938
 3496SOL    HW210526   3.909   4.879   0.941
 3497SOL     OW10527   4.330   4.688   0.123
 3497SOL    HW110528   4.337   4.772   0.069
 3497SOL    HW210529   4.376   4.701   0.211
 3498SOL     OW10530   3.846   4.367   0.563
 3498SOL    HW110531   3.801   4.279   0.580
 3498SOL    HW210532   3.845   4.421   0.647
 3499SOL     OW10533   3.837   4.461   1.597
 3499SOL    HW110534   3.925   4.448   1.642
 3499SOL    HW210535   3.824   4.558   1.575
 3500SOL     OW10536   4.533   3.728   0.502
 3500SOL    HW110537   4.573   3.819   0.493
 3500SOL    HW210538   4.433   3.736   0.508
 3501SOL     OW10539   3.921   4.700   1.264
 3501SOL    HW110540   4.010   4.655   1.250
 3501SOL    HW210541   3.848   4.635   1.245
 3502SOL     OW10542   4.041   3.975   1.801
 3502SOL    HW110543   4.112   4.046   1.807
 3502SOL    HW210544   3.953   4.014   1.829
 3503SOL     OW10545   4.322   4.453   0.270
 3503SOL    HW110546   4.346   4.522   0.202
 3503SOL    HW210547   4.244   4.486   0.324
 3504SOL     OW10548   4.531   4.329   1.465
 3504SOL    HW110549   4.484   4.326   1.554
 3504SOL    HW210550   4.480   4.274   1.399
 3505SOL     OW10551   4.697   4.614   1.572
 3505SOL    HW110552   4.743   4.530   1.543
 3505SOL    HW210553   4.641   4.648   1.497
 3506SOL     OW10554   4.715   4.134   1.242
 3506SOL    HW110555   4.638   4.168   1.296
 3506SOL    HW210556   4.681   4.083   1.163
 3507SOL     OW10557   4.765   4.425   0.429
 3507SOL    HW110558   4.791   4.421   0.525
 3507SOL    HW210559   4.680   4.374   0.415
 3508SOL     OW10560   3.800   4.535   0.789
 3508SOL    HW110561   3.899   4.523   0.798
 3508SOL    HW210562   3.776   4.630   0.810
 3509SOL     OW10563   4.589   4.072   0.195
 3509SOL    HW110564   4.648   4.135   0.146
 3509SOL    HW210565   4.608   3.978   0.166
 3510SOL     OW10566   4.274   3.920   0.885
 3510SOL    HW110567   4.269   3.915   0.985
 3510SOL    HW210568   4.276   4.016   0.856
 3511SOL     OW10569   3.926   4.009   1.498
 3511SOL    HW110570   3.846   4.069   1.485
 3511SOL    HW210571   3.916   3.960   1.584
 3512SOL     OW10572   4.106   4.424   0.480
 3512SOL    HW110573   4.151   4.334   0.477
 3512SOL    HW210574   4.012   4.413   0.513
 3513SOL     OW10575   4.338   3.846   0.117
 3513SOL    HW110576   4.436   3.824   0.124
 3513SOL    HW210577   4.307   3.829   0.024
 3514SOL     OW10578   4.505   3.988   1.749
 3514SOL    HW110579   4.572   3.927   1.792
 3514SOL    HW210580   4.432   4.007   1.814
 3515SOL     OW10581   4.646   4.227   0.899
 3515SOL    HW110582   4.621   4.218   0.803
 3515SOL    HW210583   4.694   4.145   0.930
 3516SOL     OW10584   4.263   3.788   0.512
 3516SOL    HW110585   4.182   3.789   0.570
 3516SOL    HW210586   4.266   3.871   0.457
 3517SOL     OW10587   4.659   3.960   0.480
 3517SOL    HW110588   4.611   4.001   0.402
 3517SOL    HW210589   4.758   3.958   0.461
 3518SOL     OW10590   4.756   4.273   0.016
 3518SOL    HW110591   4.715   4.355  -0.023
 3518SOL    HW210592   4.820   4.299   0.089
 3519SOL     OW10593   3.802   4.280   1.386
 3519SOL    HW110594   3.894   4.279   1.345
 3519SOL    HW210595   3.796   4.354   1.453
 3520SOL     OW10596   4.285   3.946   1.147
 3520SOL    HW110597   4.323   3.862   1.184
 3520SOL    HW210598   4.197   3.965   1.191
 3521SOL     OW10599   4.590   4.178   0.642
 3521SOL    HW110600   4.558   4.250   0.580
 3521SOL    HW210601   4.614   4.097   0.589
 3522SOL     OW10602   4.741   3.763   0.753
 3522SOL    HW110603   4.669   3.768   0.684
 3522SOL    HW210604   4.717   3.694   0.822
 3523SOL     OW10605   4.251   3.980   0.328
 3523SOL    HW110606   4.278   3.921   0.253
 3523SOL    HW210607   4.251   4.075   0.297
 3524SOL     OW10608   4.639   3.813   1.402
 3524SOL    HW110609   4.664   3.793   1.307
 3524SOL    HW210610   4.711   3.869   1.444
 3525SOL     OW10611   4.134   4.537   1.251
 3525SOL    HW110612   4.220   4.549   1.301
 3525SOL    HW210613   4.092   4.450   1.278
 3526SOL     OW10614   4.290   4.261   0.865
 3526SOL    HW110615   4.302   4.327   0.791
 3526SOL    HW210616   4.336   4.295   0.948
 3527SOL     OW10617   4.126   4.475   1.598
 3527SOL    HW110618   4.194   4.530   1.551
 3527SOL    HW210619   4.166   4.387   1.625
 3528SOL     OW10620   4.737   3.829   1.770
 3528SOL    HW110621   4.743   3.914   1.718
 3528SOL    HW210622   4.769   3.753   1.713
 3529SOL     OW10623   4.228   3.774   1.740
 3529SOL    HW110624   4.186   3.717   1.670
 3529SOL    HW210625   4.162   3.843   1.772
 3530SOL     OW10626   4.297   4.594   1.029
 3530SOL    HW110627   4.341   4.683   1.020
 3530SOL    HW210628   4.234   4.594   1.106
 3531SOL     OW10629   4.933   4.249   0.275
 3531SOL    HW110630   4.946   4.165   0.329
 3531SOL    HW210631   4.904   4.323   0.335
 3532SOL     OW10632   4.031   3.937   1.231
 3532SOL    HW110633   4.008   3.974   1.321
 3532SOL    HW210634   4.001   3.842   1.225
 3533SOL     OW10635   4.456   4.358   1.064
 3533SOL    HW110636   4.515   4.332   0.988
 3533SOL    HW210637   4.428   4.454   1.053
 3534SOL     OW10638   4.031   3.787   0.618
 3534SOL    HW110639   4.020   3.881   0.651
 3534SOL    HW210640   4.026   3.724   0.695
 3535SOL     OW10641   4.747   4.490   0.966
 3535SOL    HW110642   4.762   4.511   1.062
 3535SOL    HW210643   4.717   4.395   0.957
 3536SOL     OW10644   4.074   4.622   1.804
 3536SOL    HW110645   4.150   4.666   1.852
 3536SOL    HW210646   4.109   4.575   1.722
 3537SOL     OW10647   4.043   4.534   0.949
 3537SOL    HW110648   4.136   4.570   0.954
 3537SOL    HW210649   4.037   4.449   1.001
 3538SOL     OW10650   4.063   4.233   1.006
 3538SOL    HW110651   4.011   4.150   0.989
 3538SOL    HW210652   4.140   4.238   0.942
 3539SOL     OW10653   4.726   4.520   1.238
 3539SOL    HW110654   4.767   4.488   1.324
 3539SOL    HW210655   4.630   4.493   1.235
 3540SOL     OW10656   3.764   4.268   1.114
 3540SOL    HW110657   3.849   4.235   1.073
 3540SOL    HW210658   3.777   4.283   1.212
 3541SOL     OW10659   3.913   4.244   1.722
 3541SOL    HW110660   3.972   4.204   1.652
 3541SOL    HW210661   3.855   4.315   1.681
 3542SOL     OW10662   4.539   4.296   0.325
 3542SOL    HW110663   4.546   4.207   0.279
 3542SOL    HW210664   4.445   4.330   0.317
 3543SOL     OW10665   4.395   4.188   1.269
 3543SOL    HW110666   4.361   4.099   1.239
 3543SOL    HW210667   4.421   4.242   1.189
 3544SOL     OW10668   4.197   4.224   0.191
 3544SOL    HW110669   4.258   4.304   0.195
 3544SOL    HW210670   4.102   4.255   0.198
 3545SOL     OW10671   3.883   4.861   1.466
 3545SOL    HW110672   3.905   4.800   1.542
 3545SOL    HW210673   3.893   4.812   1.380
 3546SOL     OW10674   4.627   3.810   0.133
 3546SOL    HW110675   4.678   3.811   0.047
 3546SOL    HW210676   4.683   3.768   0.204
 3547SOL     OW10677   5.004   4.651   0.672
 3547SOL    HW110678   5.064   4.570   0.674
 3547SOL    HW210679   5.044   4.720   0.612
 3548SOL     OW10680   3.987   4.050   0.720
 3548SOL    HW110681   3.908   4.101   0.686
 3548SOL    HW210682   3.978   4.035   0.818
 3549SOL     OW10683   4.640   4.634   0.291
 3549SOL    HW110684   4.703   4.672   0.223
 3549SOL    HW210685   4.680   4.551   0.330
 3550SOL     OW10686   4.738   3.960   0.971
 3550SOL    HW110687   4.730   3.924   0.878
 3550SOL    HW210688   4.736   3.884   1.036
 3551SOL     OW10689   3.829   4.737   1.726
 3551SOL    HW110690   3.752   4.704   1.780
 3551SOL    HW210691   3.914   4.707   1.768
 3552SOL     OW10692   4.396   3.927   1.489
 3552SOL    HW110693   4.486   3.911   1.449
 3552SOL    HW210694   4.404   3.932   1.588
 3553SOL     OW10695   3.799   4.069   0.033
 3553SOL    HW110696   3.707   4.041   0.004
 3553SOL    HW210697   3.830   4.146  -0.023
 3554SOL     OW10698   3.796   3.890   0.318
 3554SOL    HW110699   3.779   3.973   0.264
 3554SOL    HW210700   3.886   3.853   0.296
 3555SOL     OW10701   4.337   4.566   1.431
 3555SOL    HW110702   4.393   4.647   1.414
 3555SOL    HW210703   4.396   4.486   1.434
 3556SOL     OW10704   4.440   4.289   1.708
 3556SOL    HW110705   4.459   4.354   1.782
 3556SOL    HW210706   4.500   4.209   1.717
 3557SOL     OW10707   4.949   4.049   0.449
 3557SOL    HW110708   5.014   3.975   0.438
 3557SOL    HW210709   4.969   4.099   0.533
 3558SOL     OW10710   4.318   4.469   0.652
 3558SOL    HW110711   4.368   4.554   0.633
 3558SOL    HW210712   4.230   4.471   0.604
 3559SOL     OW10713   4.583   4.680   0.861
 3559SOL    HW110714   4.637   4.611   0.909
 3559SOL    HW210715   4.551   4.749   0.927
 3560SOL     OW10716   3.803   4.964   0.653
 3560SOL    HW110717   3.802   4.917   0.741
 3560SOL    HW210718   3.885   4.936   0.602
 3561SOL     OW10719   4.152   4.148   0.520
 3561SOL    HW110720   4.182   4.076   0.458
 3561SOL    HW210721   4.113   4.108   0.603
 3562SOL     OW10722   4.041   4.271   1.280
 3562SOL    HW110723   4.079   4.212   1.352
 3562SOL    HW210724   4.081   4.245   1.192
 3563SOL     OW10725   4.725   3.758   1.154
 3563SOL    HW110726   4.662   3.686   1.123
 3563SOL    HW210727   4.818   3.722   1.154
 3564SOL     OW10728   3.763   4.801   0.300
 3564SOL    HW110729   3.862   4.790   0.291
 3564SOL    HW210730   3.723   4.715   0.332
 3565SOL     OW10731   3.954   4.352   1.975
 3565SOL    HW110732   3.861   4.350   2.012
 3565SOL    HW210733   3.955   4.313   1.883
 3566SOL     OW10734   3.949   3.999   2.858
 3566SOL    HW110735   3.984   3.982   2.950
 3566SOL    HW210736   3.861   3.954   2.846
 3567SOL     OW10737   3.743   4.092   2.509
 3567SOL    HW110738   3.661   4.135   2.548
 3567SOL    HW210739   3.715   4.019   2.446
 3568SOL     OW10740   4.492   4.868   2.885
 3568SOL    HW110741   4.414   4.885   2.945
 3568SOL    HW210742   4.526   4.955   2.849
 3569SOL     OW10743   4.574   4.522   3.685
 3569SOL    HW110744   4.570   4.598   3.750
 3569SOL    HW210745   4.596   4.558   3.594
 3570SOL     OW10746   4.409   4.736   2.527
 3570SOL    HW110747   4.478   4.720   2.597
 3570SOL    HW210748   4.336   4.793   2.565
 3571SOL     OW10749   4.162   4.116   3.361
 3571SOL    HW110750   4.244   4.060   3.370
 3571SOL    HW210751   4.081   4.058   3.365
 3572SOL     OW10752   3.964   4.815   2.748
 3572SOL    HW110753   3.978   4.731   2.800
 3572SOL    HW210754   3.909   4.879   2.803
 3573SOL     OW10755   4.330   4.688   1.985
 3573SOL    HW110756   4.337   4.772   1.931
 3573SOL    HW210757   4.376   4.701   2.073
 3574SOL     OW10758   3.846   4.367   2.425
 3574SOL    HW110759   3.801   4.279   2.442
 3574SOL    HW210760   3.845   4.421   2.509
 3575SOL     OW10761   3.837   4.461   3.459
 3575SOL    HW110762   3.925   4.448   3.504
 3575SOL    HW210763   3.824   4.558   3.437
 3576SOL     OW10764   4.533   3.728   2.364
 3576SOL    HW110765   4.573   3.819   2.355
 3576SOL    HW210766   4.433   3.736   2.370
 3577SOL     OW10767   3.921   4.700   3.126
 3577SOL    HW110768   4.010   4.655   3.112
 3577SOL    HW210769   3.848   4.635   3.107
 3578SOL     OW10770   4.041   3.975   3.663
 3578SOL    HW110771   4.112   4.046   3.669
 3578SOL    HW210772   3.953   4.014   3.691
 3579SOL     OW10773   4.322   4.453   2.132
 3579SOL    HW110774   4.346   4.522   2.064
 3579SOL    HW210775   4.244   4.486   2.186
 3580SOL     OW10776   4.531   4.329   3.327
 3580SOL    HW110777   4.484   4.326   3.416
 3580SOL    HW210778   4.480   4.274   3.261
 3581SOL     OW10779   4.697   4.614   3.434
 3581SOL    HW110780   4.743   4.530   3.405
 3581SOL    HW210781   4.641   4.648   3.359
 3582SOL     OW10782   4.715   4.134   3.104
 3582SOL    HW110783   4.638   4.168   3.158
 3582SOL    HW210784   4.681   4.083   3.025
 3583SOL     OW10785   4.765   4.425   2.291
 3583SOL    HW110786   4.791   4.421   2.387
 3583SOL    HW210787   4.680   4.374   2.277
 3584SOL     OW10788   3.800   4.535   2.651
 3584SOL    HW110789   3.899   4.523   2.660
 3584SOL    HW210790   3.776   4.630   2.672
 3585SOL     OW10791   4.589   4.072   2.057
 3585SOL    HW110792   4.648   4.135   2.008
 3585SOL    HW210793   4.608   3.978   2.028
 3586SOL     OW10794   4.274   3.920   2.747
 3586SOL    HW110795   4.269   3.915   2.847
 3586SOL    HW210796   4.276   4.016   2.718
 3587SOL     OW10797   3.926   4.009   3.360
 3587SOL    HW110798   3.846   4.069   3.347
 3587SOL    HW210799   3.916   3.960   3.446
 3588SOL     OW10800   4.106   4.424   2.342
 3588SOL    HW110801   4.151   4.334   2.339
 3588SOL    HW210802   4.012   4.413   2.375
 3589SOL     OW10803   4.338   3.846   1.979
 3589SOL    HW110804   4.436   3.824   1.986
 3589SOL    HW210805   4.307   3.829   1.886
 3590SOL     OW10806   4.505   3.988   3.611
 3590SOL    HW110807   4.572   3.927   3.654
 3590SOL    HW210808   4.432   4.007   3.676
 3591SOL     OW10809   4.646   4.227   2.761
 3591SOL    HW110810   4.621   4.218   2.665
 3591SOL    HW210811   4.694   4.145   2.792
 3592SOL     OW10812   4.263   3.788   2.374
 3592SOL    HW110813   4.182   3.789   2.432
 3592SOL    HW210814   4.266   3.871   2.319
 3593SOL     OW10815   4.021   3.759   2.033
 3593SOL    HW110816   4.070   3.843   2.012
 3593SOL    HW210817   4.083   3.694   2.078
 3594SOL     OW10818   4.659   3.960   2.342
 3594SOL    HW110819   4.611   4.001   2.264
 3594SOL    HW210820   4.758   3.958   2.323
 3595SOL     OW10821   4.756   4.273   1.878
 3595SOL    HW110822   4.715   4.355   1.839
 3595SOL    HW210823   4.820   4.299   1.951
 3596SOL     OW10824   3.802   4.280   3.248
 3596SOL    HW110825   3.894   4.279   3.207
 3596SOL    HW210826   3.796   4.354   3.315
 3597SOL     OW10827   4.285   3.946   3.009
 3597SOL    HW110828   4.323   3.862   3.046
 3597SOL    HW210829   4.197   3.965   3.053
 3598SOL     OW10830   4.590   4.178   2.504
 3598SOL    HW110831   4.558   4.250   2.442
 3598SOL    HW210832   4.614   4.097   2.451
 3599SOL     OW10833   4.741   3.763   2.615
 3599SOL    HW110834   4.669   3.768   2.546
 3599SOL    HW210835   4.717   3.694   2.684
 3600SOL     OW10836   4.251   3.980   2.190
 3600SOL    HW110837   4.278   3.921   2.115
 3600SOL    HW210838   4.251   4.075   2.159
 3601SOL     OW10839   4.639   3.813   3.264
 3601SOL    HW110840   4.664   3.793   3.169
 3601SOL    HW210841   4.711   3.869   3.306
 3602SOL     OW10842   4.134   4.537   3.113
 3602SOL    HW110843   4.220   4.549   3.163
 3602SOL    HW210844   4.092   4.450   3.140
 3603SOL     OW10845   4.290   4.261   2.727
 3603SOL    HW110846   4.302   4.327   2.653
 3603SOL    HW210847   4.336   4.295   2.810
 3604SOL     OW10848   4.126   4.475   3.460
 3604SOL    HW110849   4.194   4.530   3.413
 3604SOL    HW210850   4.166   4.387   3.487
 3605SOL     OW10851   4.737   3.829   3.632
 3605SOL    HW110852   4.743   3.914   3.580
 3605SOL    HW210853   4.769   3.753   3.575
 3606SOL     OW10854   4.228   3.774   3.602
 3606SOL    HW110855   4.186   3.717   3.532
 3606SOL    HW210856   4.162   3.843   3.634
 3607SOL     OW10857   4.297   4.594   2.891
 3607SOL    HW110858   4.341   4.683   2.882
 3607SOL    HW210859   4.234   4.594   2.968
 3608SOL     OW10860   4.933   4.249   2.137
 3608SOL    HW110861   4.946   4.165   2.191
 3608SOL    HW210862   4.904   4.323   2.197
 3609SOL     OW10863   4.031   3.937   3.093
 3609SOL    HW110864   4.008   3.974   3.183
 3609SOL    HW210865   4.001   3.842   3.087
 3610SOL     OW10866   4.456   4.358   2.926
 3610SOL    HW110867   4.515   4.332   2.850
 3610SOL    HW210868   4.428   4.454   2.915
 3611SOL     OW10869   4.031   3.787   2.480
 3611SOL    HW110870   4.020   3.881   2.513
 3611SOL    HW210871   4.026   3.724   2.557
 3612SOL     OW10872   4.747   4.490   2.828
 3612SOL    HW110873   4.762   4.511   2.924
 3612SOL    HW210874   4.717   4.395   2.819
 3613SOL     OW10875   4.074   4.622   3.666
 3613SOL    HW110876   4.150   4.666   3.714
 3613SOL    HW210877   4.109   4.575   3.584
 3614SOL     OW10878   4.043   4.534   2.811
 3614SOL    HW110879   4.136   4.570   2.816
 3614SOL    HW210880   4.037   4.449   2.863
 3615SOL     OW10881   4.063   4.233   2.868
 3615SOL    HW110882   4.011   4.150   2.851
 3615SOL    HW210883   4.140   4.238   2.804
 3616SOL     OW10884   4.726   4.520   3.100
 3616SOL    HW110885   4.767   4.488   3.186
 3616SOL    HW210886   4.630   4.493   3.097
 3617SOL     OW10887   3.764   4.268   2.976
 3617SOL    HW110888   3.849   4.235   2.935
 3617SOL    HW210889   3.777   4.283   3.074
 3618SOL     OW10890   3.913   4.244   3.584
 3618SOL    HW110891   3.972   4.204   3.514
 3618SOL    HW210892   3.855   4.315   3.543
 3619SOL     OW10893   4.539   4.296   2.187
 3619SOL    HW110894   4.546   4.207   2.141
 3619SOL    HW210895   4.445   4.330   2.179
 3620SOL     OW10896   4.395   4.188   3.131
 3620SOL    HW110897   4.361   4.099   3.101
 3620SOL    HW210898   4.421   4.242   3.051
 3621SOL     OW10899   4.197   4.224   2.053
 3621SOL    HW110900   4.258   4.304   2.057
 3621SOL    HW210901   4.102   4.255   2.060
 3622SOL     OW10902   3.883   4.861   3.328
 3622SOL    HW110903   3.905   4.800   3.404
 3622SOL    HW210904   3.893   4.812   3.242
 3623SOL     OW10905   5.026   4.579   2.171
 3623SOL    HW110906   4.940   4.548   2.213
 3623SOL    HW210907   5.022   4.565   2.072
 3624SOL     OW10908   5.004   4.651   2.534
 3624SOL    HW110909   5.064   4.570   2.536
 3624SOL    HW210910   5.044   4.720   2.474
 3625SOL     OW10911   3.987   4.050   2.582
 3625SOL    HW110912   3.908   4.101   2.548
 3625SOL    HW210913   3.978   4.035   2.680
 3626SOL     OW10914   4.640   4.634   2.153
 3626SOL    HW110915   4.703   4.672   2.085
 3626SOL    HW210916   4.680   4.551   2.192
 3627SOL     OW10917   4.738   3.960   2.833
 3627SOL    HW110918   4.730   3.924   2.740
 3627SOL    HW210919   4.736   3.884   2.898
 3628SOL     OW10920   3.829   4.737   3.588
 3628SOL    HW110921   3.752   4.704   3.642
 3628SOL    HW210922   3.914   4.707   3.630
 3629SOL     OW10923   4.396   3.927   3.351
 3629SOL    HW110924   4.486   3.911   3.311
 3629SOL    HW210925   4.404   3.932   3.450
 3630SOL     OW10926   3.799   4.069   1.895
 3630SOL    HW110927   3.707   4.041   1.866
 3630SOL    HW210928   3.830   4.146   1.839
 3631SOL     OW10929   3.796   3.890   2.180
 3631SOL    HW110930   3.779   3.973   2.126
 3631SOL    HW210931   3.886   3.853   2.158
 3632SOL     OW10932   4.337   4.566   3.293
 3632SOL    HW110933   4.393   4.647   3.276
 3632SOL    HW210934   4.396   4.486   3.296
 3633SOL     OW10935   4.440   4.289   3.570
 3633SOL    HW110936   4.459   4.354   3.644
 3633SOL    HW210937   4.500   4.209   3.579
 3634SOL     OW10938   4.949   4.049   2.311
 3634SOL    HW110939   5.014   3.975   2.300
 3634SOL    HW210940   4.969   4.099   2.395
 3635SOL     OW10941   4.318   4.469   2.514
 3635SOL    HW110942   4.368   4.554   2.495
 3635SOL    HW210943   4.230   4.471   2.466
 3636SOL     OW10944   4.583   4.680   2.723
 3636SOL    HW110945   4.637   4.611   2.771
 3636SOL    HW210946   4.551   4.749   2.789
 3637SOL     OW10947   3.803   4.964   2.515
 3637SOL    HW110948   3.802   4.917   2.603
 3637SOL    HW210949   3.885   4.936   2.464
 3638SOL     OW10950   4.152   4.148   2.382
 3638SOL    HW110951   4.182   4.076   2.320
 3638SOL    HW210952   4.113   4.108   2.465
 3639SOL     OW10953   4.041   4.271   3.142
 3639SOL    HW110954   4.079   4.212   3.214
 3639SOL    HW210955   4.081   4.245   3.054
 3640SOL     OW10956   4.725   3.758   3.016
 3640SOL    HW110957   4.662   3.686   2.985
 3640SOL    HW210958   4.818   3.722   3.016
 3641SOL     OW10959   3.763   4.801   2.162
 3641SOL    HW110960   3.862   4.790   2.153
 3641SOL    HW210961   3.723   4.715   2.194
 3642SOL     OW10962   3.954   4.352   3.837
 3642SOL    HW110963   3.861   4.350   3.874
 3642SOL    HW210964   3.955   4.313   3.745
 3643SOL     OW10965   3.949   3.999   4.720
 3643SOL    HW110966   3.984   3.982   4.812
 3643SOL    HW210967   3.861   3.954   4.708
 3644SOL     OW10968   3.743   4.092   4.371
 3644SOL    HW110969   3.661   4.135   4.410
 3644SOL    HW210970   3.715   4.019   4.308
 3645SOL     OW10971   4.409   4.736   4.389
 3645SOL    HW110972   4.478   4.720   4.459
 3645SOL    HW210973   4.336   4.793   4.427
 3646SOL     OW10974   3.964   4.815   4.610
 3646SOL    HW110975   3.978   4.731   4.662
 3646SOL    HW210976   3.909   4.879   4.665
 3647SOL     OW10977   4.330   4.688   3.847
 3647SOL    HW110978   4.337   4.772   3.793
 3647SOL    HW210979   4.376   4.701   3.935
 3648SOL     OW10980   3.846   4.367   4.287
 3648SOL    HW110981   3.801   4.279   4.304
 3648SOL    HW210982   3.845   4.421   4.371
 3649SOL     OW10983   4.533   3.728   4.226
 3649SOL    HW110984   4.573   3.819   4.217
 3649SOL    HW210985   4.433   3.736   4.232
 3650SOL     OW10986   3.921   4.700   4.988
 3650SOL    HW110987   4.010   4.655   4.974
 3650SOL    HW210988   3.848   4.635   4.969
 3651SOL     OW10989   4.322   4.453   3.994
 3651SOL    HW110990   4.346   4.522   3.926
 3651SOL    HW210991   4.244   4.486   4.048
 3652SOL     OW10992   4.765   4.425   4.153
 3652SOL    HW110993   4.791   4.421   4.249
 3652SOL    HW210994   4.680   4.374   4.139
 3653SOL     OW10995   3.800   4.535   4.513
 3653SOL    HW110996   3.899   4.523   4.522
 3653SOL    HW210997   3.776   4.630   4.534
 3654SOL     OW10998   4.589   4.072   3.919
 3654SOL    HW110999   4.648   4.135   3.870
 3654SOL    HW211000   4.608   3.978   3.890
 3655SOL     OW11001   4.274   3.920   4.609
 3655SOL    HW111002   4.269   3.915   4.709
 3655SOL    HW211003   4.276   4.016   4.580
 3656SOL     OW11004   4.106   4.424   4.204
 3656SOL    HW111005   4.151   4.334   4.201
 3656SOL    HW211006   4.012   4.413   4.237
 3657SOL     OW11007   4.338   3.846   3.841
 3657SOL    HW111008   4.436   3.824   3.848
 3657SOL    HW211009   4.307   3.829   3.748
 3658SOL     OW11010   4.646   4.227   4.623
 3658SOL    HW111011   4.621   4.218   4.527
 3658SOL    HW211012   4.694   4.145   4.654
 3659SOL     OW11013   4.263   3.788   4.236
 3659SOL    HW111014   4.182   3.789   4.294
 3659SOL    HW211015   4.266   3.871   4.181
 3660SOL     OW11016   4.021   3.759   3.895
 3660SOL    HW111017   4.070   3.843   3.874
 3660SOL    HW211018   4.083   3.694   3.940
 3661SOL     OW11019   4.659   3.960   4.204
 3661SOL    HW111020   4.611   4.001   4.126
 3661SOL    HW211021   4.758   3.958   4.185
 3662SOL     OW11022   4.756   4.273   3.740
 3662SOL    HW111023   4.715   4.355   3.701
 3662SOL    HW211024   4.820   4.299   3.813
 3663SOL     OW11025   4.590   4.178   4.366
 3663SOL    HW111026   4.558   4.250   4.304
 3663SOL    HW211027   4.614   4.097   4.313
 3664SOL     OW11028   4.741   3.763   4.477
 3664SOL    HW111029   4.669   3.768   4.408
 3664SOL    HW211030   4.717   3.694   4.546
 3665SOL     OW11031   4.251   3.980   4.052
 3665SOL    HW111032   4.278   3.921   3.977
 3665SOL    HW211033   4.251   4.075   4.021
 3666SOL     OW11034   4.835   4.919   4.824
 3666SOL    HW111035   4.795   4.963   4.905
 3666SOL    HW211036   4.794   4.956   4.741
 3667SOL     OW11037   4.290   4.261   4.589
 3667SOL    HW111038   4.302   4.327   4.515
 3667SOL    HW211039   4.336   4.295   4.672
 3668SOL     OW11040   4.297   4.594   4.753
 3668SOL    HW111041   4.341   4.683   4.744
 3668SOL    HW211042   4.234   4.594   4.830
 3669SOL     OW11043   4.933   4.249   3.999
 3669SOL    HW111044   4.946   4.165   4.053
 3669SOL    HW211045   4.904   4.323   4.059
 3670SOL     OW11046   4.031   3.937   4.955
 3670SOL    HW111047   4.008   3.974   5.045
 3670SOL    HW211048   4.001   3.842   4.949
 3671SOL     OW11049   4.456   4.358   4.788
 3671SOL    HW111050   4.515   4.332   4.712
 3671SOL    HW211051   4.428   4.454   4.777
 3672SOL     OW11052   4.031   3.787   4.342
 3672SOL    HW111053   4.020   3.881   4.375
 3672SOL    HW211054   4.026   3.724   4.419
 3673SOL     OW11055   4.043   4.534   4.673
 3673SOL    HW111056   4.136   4.570   4.678
 3673SOL    HW211057   4.037   4.449   4.725
 3674SOL     OW11058   4.063   4.233   4.730
 3674SOL    HW111059   4.011   4.150   4.713
 3674SOL    HW211060   4.140   4.238   4.666
 3675SOL     OW11061   4.726   4.520   4.962
 3675SOL    HW111062   4.767   4.488   5.048
 3675SOL    HW211063   4.630   4.493   4.959
 3676SOL     OW11064   4.539   4.296   4.049
 3676SOL    HW111065   4.546   4.207   4.003
 3676SOL    HW211066   4.445   4.330   4.041
 3677SOL     OW11067   4.395   4.188   4.993
 3677SOL    HW111068   4.361   4.099   4.963
 3677SOL    HW211069   4.421   4.242   4.913
 3678SOL     OW11070   4.197   4.224   3.915
 3678SOL    HW111071   4.258   4.304   3.919
 3678SOL    HW211072   4.102   4.255   3.922
 3679SOL     OW11073   5.026   4.579   4.033
 3679SOL    HW111074   4.940   4.548   4.075
 3679SOL    HW211075   5.022   4.565   3.934
 3680SOL     OW11076   5.004   4.651   4.396
 3680SOL    HW111077   5.064   4.570   4.398
 3680SOL    HW211078   5.044   4.720   4.336
 3681SOL     OW11079   3.987   4.050   4.444
 3681SOL    HW111080   3.908   4.101   4.410
 3681SOL    HW211081   3.978   4.035   4.542
 3682SOL     OW11082   4.640   4.634   4.015
 3682SOL    HW111083   4.703   4.672   3.947
 3682SOL    HW211084   4.680   4.551   4.054
 3683SOL     OW11085   3.799   4.069   3.757
 3683SOL    HW111086   3.707   4.041   3.728
 3683SOL    HW211087   3.830   4.146   3.701
 3684SOL     OW11088   3.796   3.890   4.042
 3684SOL    HW111089   3.779   3.973   3.988
 3684SOL    HW211090   3.886   3.853   4.020
 3685SOL     OW11091   4.949   4.049   4.173
 3685SOL    HW111092   5.014   3.975   4.162
 3685SOL    HW211093   4.969   4.099   4.257
 3686SOL     OW11094   4.318   4.469   4.376
 3686SOL    HW111095   4.368   4.554   4.357
 3686SOL    HW211096   4.230   4.471   4.328
 3687SOL     OW11097   4.583   4.680   4.585
 3687SOL    HW111098   4.637   4.611   4.633
 3687SOL    HW211099   4.551   4.749   4.651
 3688SOL     OW11100   3.803   4.964   4.377
 3688SOL    HW111101   3.802   4.917   4.465
 3688SOL    HW211102   3.885   4.936   4.326
 3689SOL     OW11103   4.152   4.148   4.244
 3689SOL    HW111104   4.182   4.076   4.182
 3689SOL    HW211105   4.113   4.108   4.327
 3690SOL     OW11106   3.763   4.801   4.024
 3690SOL    HW111107   3.862   4.790   4.015
 3690SOL    HW211108   3.723   4.715   4.056
 3691H2O2    O111109   4.524   1.898   1.186
 3691H2O2    O211110   4.436   1.910   1.068
 3691H2O2    H111111   4.554   1.984   1.209
 3691H2O2    H211112   4.431   2.002   1.045
   4.80976   4.80976   4.80976
