Nano system.top
; ===============================
; Force field
; ===============================
#include "amber99sb.ff/forcefield.itp"

; ===============================
; Molecules
; ===============================
#include "rosavin_GMX.itp"
#include "h2o2.itp"
#include "spce.itp"

; ===============================
; System definition
; ===============================
[ system ]
Rosavin + H2O2 + SPC/E water system

[ molecules ]
; Compound     #mols
Rosavin        1
H2O2           N_H2O2
SOL           N_WATER
