 4392
    1UNL      O    1   1.898   1.721   1.802
    1UNL     O1    2   1.583   1.844   1.727
    1UNL     O2    3   1.823   1.975   1.624
    1UNL     O3    4   1.593   1.698   1.893
    1UNL     O4    5   2.041   1.838   1.762
    1UNL      C    6   1.725   1.821   1.802
    1UNL     C1    7   1.816   1.842   1.678
    1UNL     C2    8   1.725   1.721   1.802
    1UNL     C3    9   1.898   1.821   1.802
    1UNL     C4   10   1.824   1.681   1.909
    1UNL      H   11   1.725   1.884   1.802
    1UNL     H1   12   1.816   1.767   1.597
    1UNL     H2   13   1.725   1.659   1.802
    1UNL     H3   14   1.898   1.884   1.802
    1UNL     H4   15   1.835   1.574   1.929
    1UNL     H5   16   1.829   1.740   2.003
    1UNL     H6   17   1.524   1.868   1.802
    1UNL     H7   18   1.915   1.985   1.596
    1UNL     H8   19   1.527   1.670   1.825
    1UNL     H9   20   2.091   1.807   1.839
    2SOL     OW   21   0.230   0.628   0.113
    2SOL    HW1   22   0.137   0.626   0.150
    2SOL    HW2   23   0.231   0.589   0.021
    3SOL     OW   24   0.225   0.275   0.996
    3SOL    HW1   25   0.260   0.258   1.088
    3SOL    HW2   26   0.137   0.230   0.984
    4SOL     OW   27   0.019   0.368   0.647
    4SOL    HW1   28  -0.063   0.411   0.686
    4SOL    HW2   29  -0.009   0.295   0.584
    5SOL     OW   30   0.569   1.275   1.165
    5SOL    HW1   31   0.476   1.268   1.128
    5SOL    HW2   32   0.580   1.364   1.209
    6SOL     OW   33   1.555   1.511   0.703
    6SOL    HW1   34   1.498   1.495   0.784
    6SOL    HW2   35   1.496   1.521   0.623
    7SOL     OW   36   1.135   0.703   0.717
    7SOL    HW1   37   1.192   0.781   0.692
    7SOL    HW2   38   1.075   0.729   0.793
    8SOL     OW   39   1.755   0.607   0.231
    8SOL    HW1   40   1.743   0.594   0.132
    8SOL    HW2   41   1.725   0.526   0.280
    9SOL     OW   42   0.768   1.144   1.023
    9SOL    HW1   43   0.690   1.161   1.083
    9SOL    HW2   44   0.802   1.231   0.987
   10SOL     OW   45   0.850   0.798   1.823
   10SOL    HW1   46   0.846   0.874   1.888
   10SOL    HW2   47   0.872   0.834   1.732
   11SOL     OW   48   0.685   1.012   0.665
   11SOL    HW1   49   0.754   0.996   0.735
   11SOL    HW2   50   0.612   1.069   0.703
   12SOL     OW   51   0.686   1.161   1.803
   12SOL    HW1   52   0.746   1.240   1.817
   12SOL    HW2   53   0.600   1.192   1.762
   13SOL     OW   54   0.335   1.435   1.061
   13SOL    HW1   55   0.257   1.404   1.008
   13SOL    HW2   56   0.393   1.493   1.004
   14SOL     OW   57   1.460   1.505   1.339
   14SOL    HW1   58   1.484   1.599   1.365
   14SOL    HW2   59   1.444   1.451   1.421
   15SOL     OW   60   0.438   0.392   1.499
   15SOL    HW1   61   0.520   0.336   1.508
   15SOL    HW2   62   0.357   0.334   1.503
   16SOL     OW   63   1.603   0.447   0.737
   16SOL    HW1   64   1.529   0.493   0.687
   16SOL    HW2   65   1.654   0.515   0.790
   17SOL     OW   66   0.231   1.713   0.483
   17SOL    HW1   67   0.265   1.790   0.537
   17SOL    HW2   68   0.275   1.713   0.393
   18SOL     OW   69   1.127   1.341   1.690
   18SOL    HW1   70   1.174   1.341   1.778
   18SOL    HW2   71   1.079   1.254   1.679
   19SOL     OW   72   0.230   1.434   0.538
   19SOL    HW1   73   0.204   1.530   0.538
   19SOL    HW2   74   0.159   1.380   0.583
   20SOL     OW   75   0.240   1.091   0.886
   20SOL    HW1   76   0.254   1.007   0.938
   20SOL    HW2   77   0.185   1.155   0.941
   21SOL     OW   78   0.620   1.786   1.439
   21SOL    HW1   79   0.528   1.769   1.474
   21SOL    HW2   80   0.648   1.878   1.465
   22SOL     OW   81   0.606   0.964   0.123
   22SOL    HW1   82   0.613   1.048   0.069
   22SOL    HW2   83   0.652   0.977   0.211
   23SOL     OW   84   1.594   0.114   1.480
   23SOL    HW1   85   1.576   0.181   1.408
   23SOL    HW2   86   1.591   0.160   1.569
   24SOL     OW   87   0.122   0.643   0.563
   24SOL    HW1   88   0.077   0.555   0.580
   24SOL    HW2   89   0.121   0.697   0.647
   25SOL     OW   90   1.842   1.767   0.359
   25SOL    HW1   91   1.896   1.738   0.439
   25SOL    HW2   92   1.872   1.857   0.330
   26SOL     OW   93   0.027   1.596   0.117
   26SOL    HW1   94   0.008   1.500   0.138
   26SOL    HW2   95  -0.006   1.654   0.192
   27SOL     OW   96   1.689   0.922   0.612
   27SOL    HW1   97   1.784   0.893   0.620
   27SOL    HW2   98   1.681   0.987   0.537
   28SOL     OW   99   1.641   1.108   0.432
   28SOL    HW1  100   1.727   1.110   0.380
   28SOL    HW2  101   1.655   1.155   0.520
   29SOL     OW  102   0.113   0.737   1.597
   29SOL    HW1  103   0.201   0.724   1.642
   29SOL    HW2  104   0.100   0.834   1.575
   30SOL     OW  105   0.613   1.365   0.726
   30SOL    HW1  106   0.564   1.278   0.735
   30SOL    HW2  107   0.590   1.408   0.639
   31SOL     OW  108   1.293   1.228   1.423
   31SOL    HW1  109   1.330   1.155   1.365
   31SOL    HW2  110   1.345   1.233   1.508
   32SOL     OW  111   0.809   0.004   0.502
   32SOL    HW1  112   0.849   0.095   0.493
   32SOL    HW2  113   0.709   0.012   0.508
   33SOL     OW  114   0.197   0.976   1.264
   33SOL    HW1  115   0.286   0.931   1.250
   33SOL    HW2  116   0.124   0.911   1.245
   34SOL     OW  117   1.525   0.999   0.190
   34SOL    HW1  118   1.462   0.923   0.203
   34SOL    HW2  119   1.573   1.017   0.276
   35SOL     OW  120   1.187   1.792   1.616
   35SOL    HW1  121   1.211   1.852   1.540
   35SOL    HW2  122   1.194   1.697   1.586
   36SOL     OW  123   0.317   0.251   1.801
   36SOL    HW1  124   0.388   0.322   1.807
   36SOL    HW2  125   0.229   0.290   1.829
   37SOL     OW  126   1.466   1.417   0.953
   37SOL    HW1  127   1.407   1.423   1.033
   37SOL    HW2  128   1.451   1.329   0.907
   38SOL     OW  129   1.667   1.714   0.572
   38SOL    HW1  130   1.626   1.691   0.484
   38SOL    HW2  131   1.649   1.640   0.637
   39SOL     OW  132   0.598   0.729   0.270
   39SOL    HW1  133   0.622   0.798   0.202
   39SOL    HW2  134   0.520   0.762   0.324
   40SOL     OW  135   1.281   0.345   0.944
   40SOL    HW1  136   1.195   0.295   0.931
   40SOL    HW2  137   1.343   0.291   1.000
   41SOL     OW  138   1.576   1.662   0.307
   41SOL    HW1  139   1.665   1.708   0.310
   41SOL    HW2  140   1.555   1.638   0.212
   42SOL     OW  141   0.807   0.605   1.465
   42SOL    HW1  142   0.760   0.602   1.554
   42SOL    HW2  143   0.756   0.550   1.399
   43SOL     OW  144   1.394   0.469   1.674
   43SOL    HW1  145   1.374   0.512   1.762
   43SOL    HW2  146   1.472   0.407   1.683
   44SOL     OW  147   0.973   0.890   1.572
   44SOL    HW1  148   1.019   0.806   1.543
   44SOL    HW2  149   0.917   0.924   1.497
   45SOL     OW  150   0.991   0.410   1.242
   45SOL    HW1  151   0.914   0.444   1.296
   45SOL    HW2  152   0.957   0.359   1.163
   46SOL     OW  153   1.041   0.701   0.429
   46SOL    HW1  154   1.067   0.697   0.525
   46SOL    HW2  155   0.956   0.650   0.415
   47SOL     OW  156   0.076   0.811   0.789
   47SOL    HW1  157   0.175   0.799   0.798
   47SOL    HW2  158   0.052   0.906   0.810
   48SOL     OW  159   0.130   1.821   1.571
   48SOL    HW1  160   0.120   1.806   1.670
   48SOL    HW2  161   0.044   1.857   1.535
   49SOL     OW  162   0.865   0.348   0.195
   49SOL    HW1  163   0.924   0.411   0.146
   49SOL    HW2  164   0.884   0.254   0.166
   50SOL     OW  165   1.719   0.585   1.831
   50SOL    HW1  166   1.693   0.674   1.795
   50SOL    HW2  167   1.717   0.517   1.758
   51SOL     OW  168   1.362   1.144   0.545
   51SOL    HW1  169   1.445   1.115   0.497
   51SOL    HW2  170   1.313   1.211   0.489
   52SOL     OW  171   0.550   0.196   0.885
   52SOL    HW1  172   0.545   0.191   0.985
   52SOL    HW2  173   0.552   0.292   0.856
   53SOL     OW  174   1.008   1.456   0.477
   53SOL    HW1  175   0.962   1.528   0.425
   53SOL    HW2  176   1.004   1.476   0.575
   54SOL     OW  177   0.351   1.801   0.853
   54SOL    HW1  178   0.401   1.715   0.859
   54SOL    HW2  179   0.416   1.878   0.850
   55SOL     OW  180   1.795   1.066   0.873
   55SOL    HW1  181   1.733   1.051   0.797
   55SOL    HW2  182   1.743   1.077   0.958
   56SOL     OW  183   1.227   1.550   1.506
   56SOL    HW1  184   1.233   1.473   1.570
   56SOL    HW2  185   1.175   1.524   1.426
   57SOL     OW  186   0.321   0.943   0.242
   57SOL    HW1  187   0.403   0.982   0.200
   57SOL    HW2  188   0.294   0.861   0.193
   58SOL     OW  189   1.458   0.735   0.728
   58SOL    HW1  190   1.453   0.670   0.803
   58SOL    HW2  191   1.538   0.794   0.741
   59SOL     OW  192   0.461   1.266   1.727
   59SOL    HW1  193   0.411   1.267   1.641
   59SOL    HW2  194   0.398   1.248   1.803
   60SOL     OW  195   1.111   1.776   0.237
   60SOL    HW1  196   1.051   1.714   0.287
   60SOL    HW2  197   1.142   1.732   0.152
   61SOL     OW  198   0.202   0.285   1.498
   61SOL    HW1  199   0.122   0.345   1.485
   61SOL    HW2  200   0.192   0.236   1.584
   62SOL     OW  201   1.632   1.377   0.081
   62SOL    HW1  202   1.600   1.471   0.071
   62SOL    HW2  203   1.556   1.314   0.069
   63SOL     OW  204   0.464   1.743   0.323
   63SOL    HW1  205   0.497   1.782   0.409
   63SOL    HW2  206   0.540   1.736   0.258
   64SOL     OW  207   1.400   0.107   0.426
   64SOL    HW1  208   1.376   0.070   0.336
   64SOL    HW2  209   1.499   0.123   0.430
   65SOL     OW  210   0.249   1.785   1.241
   65SOL    HW1  211   0.306   1.720   1.291
   65SOL    HW2  212   0.233   1.752   1.148
   66SOL     OW  213   0.940   1.698   0.904
   66SOL    HW1  214   1.020   1.641   0.925
   66SOL    HW2  215   0.891   1.658   0.827
   67SOL     OW  216   0.382   0.700   0.480
   67SOL    HW1  217   0.427   0.610   0.477
   67SOL    HW2  218   0.288   0.689   0.513
   68SOL     OW  219   1.547   0.222   1.729
   68SOL    HW1  220   1.542   0.259   1.821
   68SOL    HW2  221   1.475   0.153   1.717
   69SOL     OW  222   0.614   0.122   0.117
   69SOL    HW1  223   0.712   0.100   0.124
   69SOL    HW2  224   0.583   0.105   0.024
   70SOL     OW  225   0.781   0.264   1.749
   70SOL    HW1  226   0.848   0.203   1.792
   70SOL    HW2  227   0.708   0.283   1.814
   71SOL     OW  228   0.888   1.514   1.195
   71SOL    HW1  229   0.865   1.489   1.101
   71SOL    HW2  230   0.949   1.445   1.234
   72SOL     OW  231   1.351   0.590   1.433
   72SOL    HW1  232   1.379   0.547   1.518
   72SOL    HW2  233   1.376   0.686   1.434
   73SOL     OW  234   0.803   1.402   0.924
   73SOL    HW1  235   0.893   1.416   0.882
   73SOL    HW2  236   0.732   1.404   0.853
   74SOL     OW  237   0.922   0.503   0.899
   74SOL    HW1  238   0.897   0.494   0.803
   74SOL    HW2  239   0.970   0.421   0.930
   75SOL     OW  240   0.539   0.064   0.512
   75SOL    HW1  241   0.458   0.065   0.570
   75SOL    HW2  242   0.542   0.147   0.457
   76SOL     OW  243   1.434   1.188   0.041
   76SOL    HW1  244   1.466   1.112   0.098
   76SOL    HW2  245   1.342   1.215   0.071
   77SOL     OW  246   0.297   0.035   0.171
   77SOL    HW1  247   0.346   0.119   0.150
   77SOL    HW2  248   0.359  -0.030   0.216
   78SOL     OW  249   0.935   0.236   0.480
   78SOL    HW1  250   0.887   0.277   0.402
   78SOL    HW2  251   1.034   0.234   0.461
   79SOL     OW  252   1.076   0.683   1.464
   79SOL    HW1  253   0.996   0.622   1.467
   79SOL    HW2  254   1.157   0.630   1.440
   80SOL     OW  255   1.227   1.570   0.793
   80SOL    HW1  256   1.248   1.644   0.728
   80SOL    HW2  257   1.295   1.570   0.866
   81SOL     OW  258   0.459   1.152   0.741
   81SOL    HW1  259   0.388   1.125   0.806
   81SOL    HW2  260   0.433   1.124   0.648
   82SOL     OW  261   1.271   1.797   0.591
   82SOL    HW1  262   1.315   1.861   0.527
   82SOL    HW2  263   1.221   1.849   0.661
   83SOL     OW  264   1.032   0.549   0.016
   83SOL    HW1  265   0.991   0.631  -0.023
   83SOL    HW2  266   1.096   0.575   0.089
   84SOL     OW  267   0.078   0.556   1.386
   84SOL    HW1  268   0.170   0.555   1.345
   84SOL    HW2  269   0.072   0.630   1.453
   85SOL     OW  270   0.561   0.222   1.147
   85SOL    HW1  271   0.599   0.138   1.184
   85SOL    HW2  272   0.473   0.241   1.191
   86SOL     OW  273   0.866   0.454   0.642
   86SOL    HW1  274   0.834   0.526   0.580
   86SOL    HW2  275   0.890   0.373   0.589
   87SOL     OW  276   1.017   0.039   0.753
   87SOL    HW1  277   0.945   0.044   0.684
   87SOL    HW2  278   0.993  -0.030   0.822
   88SOL     OW  279   1.429   1.173   0.867
   88SOL    HW1  280   1.374   1.089   0.860
   88SOL    HW2  281   1.455   1.202   0.775
   89SOL     OW  282   1.466   0.590   0.992
   89SOL    HW1  283   1.436   0.495   0.999
   89SOL    HW2  284   1.539   0.606   1.058
   90SOL     OW  285   1.857   0.833   0.377
   90SOL    HW1  286   1.899   0.769   0.441
   90SOL    HW2  287   1.819   0.782   0.299
   91SOL     OW  288   0.488   1.385   0.174
   91SOL    HW1  289   0.401   1.370   0.221
   91SOL    HW2  290   0.471   1.411   0.079
   92SOL     OW  291   1.664   1.280   0.657
   92SOL    HW1  292   1.763   1.288   0.671
   92SOL    HW2  293   1.619   1.364   0.688
   93SOL     OW  294   1.390   0.575   0.078
   93SOL    HW1  295   1.336   0.554   0.159
   93SOL    HW2  296   1.481   0.534   0.087
   94SOL     OW  297   0.527   0.256   0.328
   94SOL    HW1  298   0.554   0.197   0.253
   94SOL    HW2  299   0.527   0.351   0.297
   95SOL     OW  300   1.754   1.223   1.588
   95SOL    HW1  301   1.845   1.184   1.575
   95SOL    HW2  302   1.762   1.319   1.612
   96SOL     OW  303   1.064   1.347   1.340
   96SOL    HW1  304   0.984   1.324   1.395
   96SOL    HW2  305   1.147   1.321   1.389
   97SOL     OW  306   1.592   1.629   1.625
   97SOL    HW1  307   1.619   1.663   1.535
   97SOL    HW2  308   1.671   1.591   1.671
   98SOL     OW  309   1.111   1.195   1.100
   98SOL    HW1  310   1.071   1.239   1.181
   98SOL    HW2  311   1.070   1.232   1.017
   99SOL     OW  312   1.638   1.099   1.079
   99SOL    HW1  313   1.643   1.180   1.138
   99SOL    HW2  314   1.552   1.101   1.028
  100SOL     OW  315   0.915   0.089   1.402
  100SOL    HW1  316   0.940   0.069   1.307
  100SOL    HW2  317   0.987   0.145   1.444
  101SOL     OW  318   0.980   1.116   1.719
  101SOL    HW1  319   0.881   1.122   1.729
  101SOL    HW2  320   1.003   1.036   1.663
  102SOL     OW  321   0.705   1.050   0.368
  102SOL    HW1  322   0.691   1.057   0.467
  102SOL    HW2  323   0.789   0.999   0.350
  103SOL     OW  324   0.410   0.813   1.251
  103SOL    HW1  325   0.496   0.825   1.301
  103SOL    HW2  326   0.368   0.726   1.278
  104SOL     OW  327   1.274   0.386   1.262
  104SOL    HW1  328   1.295   0.460   1.326
  104SOL    HW2  329   1.185   0.403   1.219
  105SOL     OW  330   0.064   1.564   1.331
  105SOL    HW1  331   0.018   1.646   1.297
  105SOL    HW2  332   0.162   1.583   1.340
  106SOL     OW  333   0.367   1.100   0.501
  106SOL    HW1  334   0.360   1.183   0.445
  106SOL    HW2  335   0.371   1.020   0.441
  107SOL     OW  336   0.566   0.537   0.865
  107SOL    HW1  337   0.578   0.603   0.791
  107SOL    HW2  338   0.612   0.571   0.948
  108SOL     OW  339   1.252   1.348   0.388
  108SOL    HW1  340   1.302   1.425   0.428
  108SOL    HW2  341   1.157   1.350   0.420
  109SOL     OW  342   1.272   1.445   1.142
  109SOL    HW1  343   1.319   1.458   1.229
  109SOL    HW2  344   1.206   1.371   1.151
  110SOL     OW  345   1.582   0.639   0.472
  110SOL    HW1  346   1.551   0.700   0.545
  110SOL    HW2  347   1.632   0.691   0.403
  111SOL     OW  348   0.354   1.510   1.329
  111SOL    HW1  349   0.333   1.466   1.242
  111SOL    HW2  350   0.451   1.536   1.332
  112SOL     OW  351   0.402   0.751   1.598
  112SOL    HW1  352   0.470   0.806   1.551
  112SOL    HW2  353   0.442   0.663   1.625
  113SOL     OW  354   1.587   0.779   1.670
  113SOL    HW1  355   1.495   0.817   1.665
  113SOL    HW2  356   1.647   0.826   1.605
  114SOL     OW  357   1.013   0.105   1.770
  114SOL    HW1  358   1.019   0.190   1.718
  114SOL    HW2  359   1.045   0.029   1.713
  115SOL     OW  360   0.504   0.050   1.740
  115SOL    HW1  361   0.462  -0.007   1.670
  115SOL    HW2  362   0.438   0.119   1.772
  116SOL     OW  363   0.573   0.870   1.029
  116SOL    HW1  364   0.617   0.959   1.020
  116SOL    HW2  365   0.510   0.870   1.106
  117SOL     OW  366   1.360   0.862   1.045
  117SOL    HW1  367   1.285   0.862   0.979
  117SOL    HW2  368   1.397   0.770   1.054
  118SOL     OW  369   1.209   0.525   0.275
  118SOL    HW1  370   1.222   0.441   0.329
  118SOL    HW2  371   1.180   0.599   0.335
  119SOL     OW  372   0.307   0.213   1.231
  119SOL    HW1  373   0.284   0.250   1.321
  119SOL    HW2  374   0.277   0.118   1.225
  120SOL     OW  375   0.037   1.310   1.282
  120SOL    HW1  376   0.090   1.261   1.350
  120SOL    HW2  377   0.059   1.408   1.287
  121SOL     OW  378   0.732   0.634   1.064
  121SOL    HW1  379   0.791   0.608   0.988
  121SOL    HW2  380   0.704   0.730   1.053
  122SOL     OW  381   1.728   0.935   1.854
  122SOL    HW1  382   1.682   0.928   1.765
  122SOL    HW2  383   1.666   0.979   1.920
  123SOL     OW  384   0.307   0.063   0.618
  123SOL    HW1  385   0.296   0.157   0.651
  123SOL    HW2  386   0.302   0.000   0.695
  124SOL     OW  387   1.622   0.367   0.374
  124SOL    HW1  388   1.624   0.291   0.438
  124SOL    HW2  389   1.574   0.444   0.414
  125SOL     OW  390   1.023   0.766   0.966
  125SOL    HW1  391   1.038   0.787   1.062
  125SOL    HW2  392   0.993   0.671   0.957
  126SOL     OW  393   0.980   1.573   1.700
  126SOL    HW1  394   0.960   1.617   1.612
  126SOL    HW2  395   1.019   1.482   1.684
  127SOL     OW  396   1.859   1.518   1.605
  127SOL    HW1  397   1.873   1.545   1.510
  127SOL    HW2  398   1.942   1.540   1.658
  128SOL     OW  399   0.350   0.898   1.804
  128SOL    HW1  400   0.426   0.942   1.852
  128SOL    HW2  401   0.385   0.851   1.722
  129SOL     OW  402   1.540   0.274   0.125
  129SOL    HW1  403   1.479   0.199   0.148
  129SOL    HW2  404   1.562   0.326   0.208
  130SOL     OW  405   1.303   0.838   0.042
  130SOL    HW1  406   1.337   0.745   0.057
  130SOL    HW2  407   1.321   0.865  -0.053
  131SOL     OW  408   1.068   1.333   0.849
  131SOL    HW1  409   1.075   1.249   0.794
  131SOL    HW2  410   1.130   1.402   0.813
  132SOL     OW  411   0.319   0.810   0.949
  132SOL    HW1  412   0.412   0.846   0.954
  132SOL    HW2  413   0.313   0.725   1.001
  133SOL     OW  414   0.339   0.509   1.006
  133SOL    HW1  415   0.287   0.426   0.989
  133SOL    HW2  416   0.416   0.514   0.942
  134SOL     OW  417   1.138   0.380   1.678
  134SOL    HW1  418   1.093   0.443   1.742
  134SOL    HW2  419   1.231   0.411   1.661
  135SOL     OW  420   1.160   0.207   1.477
  135SOL    HW1  421   1.160   0.271   1.554
  135SOL    HW2  422   1.188   0.255   1.394
  136SOL     OW  423   0.008   1.326   0.200
  136SOL    HW1  424  -0.085   1.347   0.169
  136SOL    HW2  425   0.018   1.227   0.213
  137SOL     OW  426   0.088   1.801   0.927
  137SOL    HW1  427   0.046   1.715   0.900
  137SOL    HW2  428   0.182   1.804   0.893
  138SOL     OW  429   0.504   1.568   0.910
  138SOL    HW1  430   0.570   1.642   0.919
  138SOL    HW2  431   0.548   1.489   0.868
  139SOL     OW  432   1.002   0.796   1.238
  139SOL    HW1  433   1.043   0.764   1.324
  139SOL    HW2  434   0.906   0.769   1.235
  140SOL     OW  435   0.040   0.544   1.114
  140SOL    HW1  436   0.125   0.511   1.073
  140SOL    HW2  437   0.053   0.559   1.212
  141SOL     OW  438   0.189   0.520   1.722
  141SOL    HW1  439   0.248   0.480   1.652
  141SOL    HW2  440   0.131   0.591   1.681
  142SOL     OW  441   1.369   0.950   1.660
  142SOL    HW1  442   1.408   1.039   1.680
  142SOL    HW2  443   1.379   0.930   1.563
  143SOL     OW  444   0.815   0.572   0.325
  143SOL    HW1  445   0.822   0.483   0.279
  143SOL    HW2  446   0.721   0.606   0.317
  144SOL     OW  447   1.657   0.604   1.206
  144SOL    HW1  448   1.619   0.535   1.268
  144SOL    HW2  449   1.739   0.568   1.162
  145SOL     OW  450   0.252   1.564   1.744
  145SOL    HW1  451   0.222   1.621   1.820
  145SOL    HW2  452   0.245   1.467   1.770
  146SOL     OW  453   0.671   0.464   1.269
  146SOL    HW1  454   0.637   0.375   1.239
  146SOL    HW2  455   0.697   0.518   1.189
  147SOL     OW  456   0.930   1.678   1.465
  147SOL    HW1  457   0.906   1.660   1.370
  147SOL    HW2  458   0.960   1.772   1.475
  148SOL     OW  459   0.473   0.500   0.191
  148SOL    HW1  460   0.534   0.580   0.195
  148SOL    HW2  461   0.378   0.531   0.198
  149SOL     OW  462   0.159   1.137   1.466
  149SOL    HW1  463   0.181   1.076   1.542
  149SOL    HW2  464   0.169   1.088   1.380
  150SOL     OW  465   1.347   1.059   1.234
  150SOL    HW1  466   1.371   0.996   1.160
  150SOL    HW2  467   1.257   1.099   1.216
  151SOL     OW  468   1.302   0.855   0.309
  151SOL    HW1  469   1.216   0.824   0.351
  151SOL    HW2  470   1.298   0.841   0.210
  152SOL     OW  471   1.759   1.747   1.154
  152SOL    HW1  472   1.820   1.777   1.081
  152SOL    HW2  473   1.721   1.658   1.132
  153SOL     OW  474   1.252   1.731   1.128
  153SOL    HW1  475   1.336   1.736   1.074
  153SOL    HW2  476   1.229   1.635   1.146
  154SOL     OW  477   0.083   1.258   1.022
  154SOL    HW1  478   0.078   1.257   1.122
  154SOL    HW2  479   0.000   1.217   0.984
  155SOL     OW  480   0.688   1.662   1.716
  155SOL    HW1  481   0.632   1.743   1.725
  155SOL    HW2  482   0.740   1.666   1.630
  156SOL     OW  483   0.903   0.086   0.133
  156SOL    HW1  484   0.954   0.087   0.047
  156SOL    HW2  485   0.959   0.044   0.204
  157SOL     OW  486   1.726   0.135   0.523
  157SOL    HW1  487   1.799   0.118   0.456
  157SOL    HW2  488   1.695   0.048   0.561
  158SOL     OW  489   1.388   1.573   0.477
  158SOL    HW1  490   1.455   1.585   0.403
  158SOL    HW2  491   1.348   1.662   0.500
  159SOL     OW  492   0.130   1.794   1.851
  159SOL    HW1  493   0.089   1.720   1.904
  159SOL    HW2  494   0.194   1.845   1.909
  160SOL     OW  495   1.280   0.927   0.672
  160SOL    HW1  496   1.340   0.846   0.674
  160SOL    HW2  497   1.320   0.996   0.612
  161SOL     OW  498   0.830   1.273   1.422
  161SOL    HW1  499   0.825   1.306   1.517
  161SOL    HW2  500   0.744   1.292   1.376
  162SOL     OW  501   0.672   1.616   0.154
  162SOL    HW1  502   0.681   1.626   0.055
  162SOL    HW2  503   0.632   1.527   0.175
  163SOL     OW  504   1.650   1.720   1.394
  163SOL    HW1  505   1.703   1.730   1.310
  163SOL    HW2  506   1.623   1.810   1.428
  164SOL     OW  507   1.841   0.175   0.963
  164SOL    HW1  508   1.880   0.090   0.927
  164SOL    HW2  509   1.743   0.177   0.944
  165SOL     OW  510   0.263   0.326   0.720
  165SOL    HW1  511   0.184   0.377   0.686
  165SOL    HW2  512   0.254   0.311   0.818
  166SOL     OW  513   1.194   1.612   0.031
  166SOL    HW1  514   1.200   1.519   0.068
  166SOL    HW2  515   1.135   1.612  -0.049
  167SOL     OW  516   0.822   1.002   1.372
  167SOL    HW1  517   0.862   1.001   1.280
  167SOL    HW2  518   0.832   1.094   1.412
  168SOL     OW  519   0.916   0.910   0.291
  168SOL    HW1  520   0.979   0.948   0.223
  168SOL    HW2  521   0.956   0.827   0.330
  169SOL     OW  522   1.504   1.607   0.044
  169SOL    HW1  523   1.412   1.644   0.051
  169SOL    HW2  524   1.542   1.627  -0.046
  170SOL     OW  525   0.372   1.288   1.490
  170SOL    HW1  526   0.359   1.381   1.456
  170SOL    HW2  527   0.288   1.236   1.477
  171SOL     OW  528   1.614   1.292   1.289
  171SOL    HW1  529   1.674   1.295   1.369
  171SOL    HW2  530   1.539   1.356   1.302
  172SOL     OW  531   1.039   1.098   0.696
  172SOL    HW1  532   0.969   1.051   0.750
  172SOL    HW2  533   1.098   1.030   0.653
  173SOL     OW  534   1.014   0.236   0.971
  173SOL    HW1  535   1.006   0.200   0.878
  173SOL    HW2  536   1.012   0.160   1.036
  174SOL     OW  537   0.590   1.487   0.491
  174SOL    HW1  538   0.632   1.429   0.421
  174SOL    HW2  539   0.546   1.566   0.447
  175SOL     OW  540   1.709   0.385   1.381
  175SOL    HW1  541   1.782   0.454   1.385
  175SOL    HW2  542   1.737   0.310   1.322
  176SOL     OW  543   0.255   1.348   0.290
  176SOL    HW1  544   0.159   1.349   0.263
  176SOL    HW2  545   0.267   1.401   0.374
  177SOL     OW  546   0.105   1.013   1.726
  177SOL    HW1  547   0.028   0.980   1.780
  177SOL    HW2  548   0.190   0.983   1.768
  178SOL     OW  549   0.672   0.203   1.489
  178SOL    HW1  550   0.762   0.187   1.449
  178SOL    HW2  551   0.680   0.208   1.588
  179SOL     OW  552   0.075   0.345   0.033
  179SOL    HW1  553  -0.017   0.317   0.004
  179SOL    HW2  554   0.106   0.422  -0.023
  180SOL     OW  555   1.440   0.856   1.398
  180SOL    HW1  556   1.383   0.908   1.335
  180SOL    HW2  557   1.536   0.868   1.374
  181SOL     OW  558   0.072   0.166   0.318
  181SOL    HW1  559   0.055   0.249   0.264
  181SOL    HW2  560   0.162   0.129   0.296
  182SOL     OW  561   1.183   1.335   0.119
  182SOL    HW1  562   1.084   1.324   0.121
  182SOL    HW2  563   1.217   1.350   0.212
  183SOL     OW  564   0.613   0.842   1.431
  183SOL    HW1  565   0.669   0.923   1.414
  183SOL    HW2  566   0.672   0.762   1.434
  184SOL     OW  567   1.493   1.767   0.959
  184SOL    HW1  568   1.526   1.831   0.890
  184SOL    HW2  569   1.559   1.761   1.034
  185SOL     OW  570   0.716   0.565   1.708
  185SOL    HW1  571   0.735   0.630   1.782
  185SOL    HW2  572   0.776   0.485   1.717
  186SOL     OW  573   1.450   1.220   1.633
  186SOL    HW1  574   1.441   1.210   1.732
  186SOL    HW2  575   1.546   1.213   1.607
  187SOL     OW  576   0.390   1.741   1.560
  187SOL    HW1  577   0.299   1.782   1.558
  187SOL    HW2  578   0.383   1.647   1.592
  188SOL     OW  579   1.674   0.883   1.254
  188SOL    HW1  580   1.647   0.794   1.217
  188SOL    HW2  581   1.675   0.951   1.181
  189SOL     OW  582   1.225   0.325   0.449
  189SOL    HW1  583   1.290   0.251   0.438
  189SOL    HW2  584   1.245   0.375   0.533
  190SOL     OW  585   0.594   0.745   0.652
  190SOL    HW1  586   0.644   0.830   0.633
  190SOL    HW2  587   0.506   0.747   0.604
  191SOL     OW  588   1.777   0.342   1.642
  191SOL    HW1  589   1.760   0.373   1.548
  191SOL    HW2  590   1.693   0.305   1.680
  192SOL     OW  591   1.730   0.934   1.517
  192SOL    HW1  592   1.768   1.025   1.532
  192SOL    HW2  593   1.722   0.917   1.418
  193SOL     OW  594   0.859   1.374   0.016
  193SOL    HW1  595   0.813   1.389   0.104
  193SOL    HW2  596   0.903   1.459  -0.014
  194SOL     OW  597   0.661   1.790   0.953
  194SOL    HW1  598   0.615   1.878   0.940
  194SOL    HW2  599   0.760   1.802   0.946
  195SOL     OW  600   0.859   0.956   0.861
  195SOL    HW1  601   0.913   0.887   0.909
  195SOL    HW2  602   0.827   1.025   0.927
  196SOL     OW  603   1.083   0.984   0.087
  196SOL    HW1  604   1.060   1.037   0.005
  196SOL    HW2  605   1.164   0.928   0.068
  197SOL     OW  606   1.861   1.569   0.851
  197SOL    HW1  607   1.790   1.557   0.781
  197SOL    HW2  608   1.862   1.490   0.911
  198SOL     OW  609   0.221   1.314   1.844
  198SOL    HW1  610   0.156   1.241   1.823
  198SOL    HW2  611   0.225   1.328   1.942
  199SOL     OW  612   0.079   1.240   0.653
  199SOL    HW1  613   0.078   1.193   0.741
  199SOL    HW2  614   0.161   1.212   0.602
  200SOL     OW  615   0.672   1.391   1.624
  200SOL    HW1  616   0.594   1.341   1.662
  200SOL    HW2  617   0.669   1.486   1.655
  201SOL     OW  618   1.824   0.192   1.227
  201SOL    HW1  619   1.820   0.102   1.271
  201SOL    HW2  620   1.827   0.181   1.128
  202SOL     OW  621   0.428   0.424   0.520
  202SOL    HW1  622   0.458   0.352   0.458
  202SOL    HW2  623   0.389   0.384   0.603
  203SOL     OW  624   1.705   1.487   1.104
  203SOL    HW1  625   1.612   1.462   1.077
  203SOL    HW2  626   1.731   1.437   1.186
  204SOL     OW  627   0.317   0.547   1.280
  204SOL    HW1  628   0.355   0.488   1.352
  204SOL    HW2  629   0.357   0.521   1.192
  205SOL     OW  630   0.812   1.586   0.687
  205SOL    HW1  631   0.844   1.596   0.593
  205SOL    HW2  632   0.733   1.524   0.689
  206SOL     OW  633   1.424   0.214   1.112
  206SOL    HW1  634   1.476   0.149   1.167
  206SOL    HW2  635   1.375   0.277   1.173
  207SOL     OW  636   1.001   0.034   1.154
  207SOL    HW1  637   0.938  -0.038   1.123
  207SOL    HW2  638   1.094  -0.002   1.154
  208SOL     OW  639   0.770   1.330   0.301
  208SOL    HW1  640   0.724   1.243   0.318
  208SOL    HW2  641   0.861   1.327   0.342
  209SOL     OW  642   0.618   1.567   1.284
  209SOL    HW1  643   0.613   1.649   1.341
  209SOL    HW2  644   0.707   1.564   1.239
  210SOL     OW  645   1.352   0.052   0.168
  210SOL    HW1  646   1.387   0.011   0.084
  210SOL    HW2  647   1.262   0.014   0.188
  211SOL     OW  648   1.300   0.453   0.691
  211SOL    HW1  649   1.241   0.533   0.695
  211SOL    HW2  650   1.315   0.418   0.784
  212SOL     OW  651   1.593   0.221   0.882
  212SOL    HW1  652   1.509   0.220   0.936
  212SOL    HW2  653   1.595   0.304   0.826
  213SOL     OW  654   0.039   1.077   0.300
  213SOL    HW1  655   0.138   1.066   0.291
  213SOL    HW2  656  -0.001   0.991   0.332
  214SOL     OW  657   0.875   1.646   0.337
  214SOL    HW1  658   0.798   1.611   0.283
  214SOL    HW2  659   0.843   1.717   0.399
  215SOL     OW  660   0.230   0.628   1.975
  215SOL    HW1  661   0.137   0.626   2.012
  215SOL    HW2  662   0.231   0.589   1.883
  216SOL     OW  663   0.225   0.275   2.858
  216SOL    HW1  664   0.260   0.258   2.950
  216SOL    HW2  665   0.137   0.230   2.846
  217SOL     OW  666   0.019   0.368   2.509
  217SOL    HW1  667  -0.063   0.411   2.548
  217SOL    HW2  668  -0.009   0.295   2.446
  218SOL     OW  669   0.569   1.275   3.027
  218SOL    HW1  670   0.476   1.268   2.990
  218SOL    HW2  671   0.580   1.364   3.071
  219SOL     OW  672   1.555   1.511   2.565
  219SOL    HW1  673   1.498   1.495   2.646
  219SOL    HW2  674   1.496   1.521   2.485
  220SOL     OW  675   1.135   0.703   2.579
  220SOL    HW1  676   1.192   0.781   2.554
  220SOL    HW2  677   1.075   0.729   2.655
  221SOL     OW  678   1.755   0.607   2.093
  221SOL    HW1  679   1.743   0.594   1.994
  221SOL    HW2  680   1.725   0.526   2.142
  222SOL     OW  681   0.768   1.144   2.885
  222SOL    HW1  682   0.690   1.161   2.945
  222SOL    HW2  683   0.802   1.231   2.849
  223SOL     OW  684   0.685   1.012   2.527
  223SOL    HW1  685   0.754   0.996   2.597
  223SOL    HW2  686   0.612   1.069   2.565
  224SOL     OW  687   0.335   1.435   2.923
  224SOL    HW1  688   0.257   1.404   2.870
  224SOL    HW2  689   0.393   1.493   2.866
  225SOL     OW  690   1.460   1.505   3.201
  225SOL    HW1  691   1.484   1.599   3.227
  225SOL    HW2  692   1.444   1.451   3.283
  226SOL     OW  693   0.438   0.392   3.361
  226SOL    HW1  694   0.520   0.336   3.370
  226SOL    HW2  695   0.357   0.334   3.365
  227SOL     OW  696   1.603   0.447   2.599
  227SOL    HW1  697   1.529   0.493   2.549
  227SOL    HW2  698   1.654   0.515   2.652
  228SOL     OW  699   0.231   1.713   2.345
  228SOL    HW1  700   0.265   1.790   2.399
  228SOL    HW2  701   0.275   1.713   2.255
  229SOL     OW  702   0.230   1.434   2.400
  229SOL    HW1  703   0.204   1.530   2.400
  229SOL    HW2  704   0.159   1.380   2.445
  230SOL     OW  705   0.240   1.091   2.748
  230SOL    HW1  706   0.254   1.007   2.800
  230SOL    HW2  707   0.185   1.155   2.803
  231SOL     OW  708   0.620   1.786   3.301
  231SOL    HW1  709   0.528   1.769   3.336
  231SOL    HW2  710   0.648   1.878   3.327
  232SOL     OW  711   0.606   0.964   1.985
  232SOL    HW1  712   0.613   1.048   1.931
  232SOL    HW2  713   0.652   0.977   2.073
  233SOL     OW  714   1.594   0.114   3.342
  233SOL    HW1  715   1.576   0.181   3.270
  233SOL    HW2  716   1.591   0.160   3.431
  234SOL     OW  717   0.122   0.643   2.425
  234SOL    HW1  718   0.077   0.555   2.442
  234SOL    HW2  719   0.121   0.697   2.509
  235SOL     OW  720   1.842   1.767   2.221
  235SOL    HW1  721   1.896   1.738   2.301
  235SOL    HW2  722   1.872   1.857   2.192
  236SOL     OW  723   0.027   1.596   1.979
  236SOL    HW1  724   0.008   1.500   2.000
  236SOL    HW2  725  -0.006   1.654   2.054
  237SOL     OW  726   1.689   0.922   2.474
  237SOL    HW1  727   1.784   0.893   2.482
  237SOL    HW2  728   1.681   0.987   2.399
  238SOL     OW  729   1.641   1.108   2.294
  238SOL    HW1  730   1.727   1.110   2.242
  238SOL    HW2  731   1.655   1.155   2.382
  239SOL     OW  732   0.113   0.737   3.459
  239SOL    HW1  733   0.201   0.724   3.504
  239SOL    HW2  734   0.100   0.834   3.437
  240SOL     OW  735   0.613   1.365   2.588
  240SOL    HW1  736   0.564   1.278   2.597
  240SOL    HW2  737   0.590   1.408   2.501
  241SOL     OW  738   1.293   1.228   3.285
  241SOL    HW1  739   1.330   1.155   3.227
  241SOL    HW2  740   1.345   1.233   3.370
  242SOL     OW  741   0.809   0.004   2.364
  242SOL    HW1  742   0.849   0.095   2.355
  242SOL    HW2  743   0.709   0.012   2.370
  243SOL     OW  744   0.197   0.976   3.126
  243SOL    HW1  745   0.286   0.931   3.112
  243SOL    HW2  746   0.124   0.911   3.107
  244SOL     OW  747   1.525   0.999   2.052
  244SOL    HW1  748   1.462   0.923   2.065
  244SOL    HW2  749   1.573   1.017   2.138
  245SOL     OW  750   1.466   1.417   2.815
  245SOL    HW1  751   1.407   1.423   2.895
  245SOL    HW2  752   1.451   1.329   2.769
  246SOL     OW  753   1.667   1.714   2.434
  246SOL    HW1  754   1.626   1.691   2.346
  246SOL    HW2  755   1.649   1.640   2.499
  247SOL     OW  756   0.598   0.729   2.132
  247SOL    HW1  757   0.622   0.798   2.064
  247SOL    HW2  758   0.520   0.762   2.186
  248SOL     OW  759   1.281   0.345   2.806
  248SOL    HW1  760   1.195   0.295   2.793
  248SOL    HW2  761   1.343   0.291   2.862
  249SOL     OW  762   1.576   1.662   2.169
  249SOL    HW1  763   1.665   1.708   2.172
  249SOL    HW2  764   1.555   1.638   2.074
  250SOL     OW  765   0.807   0.605   3.327
  250SOL    HW1  766   0.760   0.602   3.416
  250SOL    HW2  767   0.756   0.550   3.261
  251SOL     OW  768   0.973   0.890   3.434
  251SOL    HW1  769   1.019   0.806   3.405
  251SOL    HW2  770   0.917   0.924   3.359
  252SOL     OW  771   0.991   0.410   3.104
  252SOL    HW1  772   0.914   0.444   3.158
  252SOL    HW2  773   0.957   0.359   3.025
  253SOL     OW  774   1.041   0.701   2.291
  253SOL    HW1  775   1.067   0.697   2.387
  253SOL    HW2  776   0.956   0.650   2.277
  254SOL     OW  777   0.076   0.811   2.651
  254SOL    HW1  778   0.175   0.799   2.660
  254SOL    HW2  779   0.052   0.906   2.672
  255SOL     OW  780   0.130   1.821   3.433
  255SOL    HW1  781   0.120   1.806   3.532
  255SOL    HW2  782   0.044   1.857   3.397
  256SOL     OW  783   0.865   0.348   2.057
  256SOL    HW1  784   0.924   0.411   2.008
  256SOL    HW2  785   0.884   0.254   2.028
  257SOL     OW  786   1.362   1.144   2.407
  257SOL    HW1  787   1.445   1.115   2.359
  257SOL    HW2  788   1.313   1.211   2.351
  258SOL     OW  789   0.550   0.196   2.747
  258SOL    HW1  790   0.545   0.191   2.847
  258SOL    HW2  791   0.552   0.292   2.718
  259SOL     OW  792   1.008   1.456   2.339
  259SOL    HW1  793   0.962   1.528   2.287
  259SOL    HW2  794   1.004   1.476   2.437
  260SOL     OW  795   0.351   1.801   2.715
  260SOL    HW1  796   0.401   1.715   2.721
  260SOL    HW2  797   0.416   1.878   2.712
  261SOL     OW  798   1.795   1.066   2.735
  261SOL    HW1  799   1.733   1.051   2.659
  261SOL    HW2  800   1.743   1.077   2.820
  262SOL     OW  801   1.227   1.550   3.368
  262SOL    HW1  802   1.233   1.473   3.432
  262SOL    HW2  803   1.175   1.524   3.288
  263SOL     OW  804   0.321   0.943   2.104
  263SOL    HW1  805   0.403   0.982   2.062
  263SOL    HW2  806   0.294   0.861   2.055
  264SOL     OW  807   1.458   0.735   2.590
  264SOL    HW1  808   1.453   0.670   2.665
  264SOL    HW2  809   1.538   0.794   2.603
  265SOL     OW  810   0.461   1.266   3.589
  265SOL    HW1  811   0.411   1.267   3.503
  265SOL    HW2  812   0.398   1.248   3.665
  266SOL     OW  813   1.111   1.776   2.099
  266SOL    HW1  814   1.051   1.714   2.149
  266SOL    HW2  815   1.142   1.732   2.014
  267SOL     OW  816   0.202   0.285   3.360
  267SOL    HW1  817   0.122   0.345   3.347
  267SOL    HW2  818   0.192   0.236   3.446
  268SOL     OW  819   1.632   1.377   1.943
  268SOL    HW1  820   1.600   1.471   1.933
  268SOL    HW2  821   1.556   1.314   1.931
  269SOL     OW  822   0.464   1.743   2.185
  269SOL    HW1  823   0.497   1.782   2.271
  269SOL    HW2  824   0.540   1.736   2.120
  270SOL     OW  825   1.400   0.107   2.288
  270SOL    HW1  826   1.376   0.070   2.198
  270SOL    HW2  827   1.499   0.123   2.292
  271SOL     OW  828   0.249   1.785   3.103
  271SOL    HW1  829   0.306   1.720   3.153
  271SOL    HW2  830   0.233   1.752   3.010
  272SOL     OW  831   0.940   1.698   2.766
  272SOL    HW1  832   1.020   1.641   2.787
  272SOL    HW2  833   0.891   1.658   2.689
  273SOL     OW  834   0.382   0.700   2.342
  273SOL    HW1  835   0.427   0.610   2.339
  273SOL    HW2  836   0.288   0.689   2.375
  274SOL     OW  837   0.614   0.122   1.979
  274SOL    HW1  838   0.712   0.100   1.986
  274SOL    HW2  839   0.583   0.105   1.886
  275SOL     OW  840   0.888   1.514   3.057
  275SOL    HW1  841   0.865   1.489   2.963
  275SOL    HW2  842   0.949   1.445   3.096
  276SOL     OW  843   1.351   0.590   3.295
  276SOL    HW1  844   1.379   0.547   3.380
  276SOL    HW2  845   1.376   0.686   3.296
  277SOL     OW  846   0.803   1.402   2.786
  277SOL    HW1  847   0.893   1.416   2.744
  277SOL    HW2  848   0.732   1.404   2.715
  278SOL     OW  849   0.922   0.503   2.761
  278SOL    HW1  850   0.897   0.494   2.665
  278SOL    HW2  851   0.970   0.421   2.792
  279SOL     OW  852   0.539   0.064   2.374
  279SOL    HW1  853   0.458   0.065   2.432
  279SOL    HW2  854   0.542   0.147   2.319
  280SOL     OW  855   1.434   1.188   1.903
  280SOL    HW1  856   1.466   1.112   1.960
  280SOL    HW2  857   1.342   1.215   1.933
  281SOL     OW  858   0.297   0.035   2.033
  281SOL    HW1  859   0.346   0.119   2.012
  281SOL    HW2  860   0.359  -0.030   2.078
  282SOL     OW  861   0.935   0.236   2.342
  282SOL    HW1  862   0.887   0.277   2.264
  282SOL    HW2  863   1.034   0.234   2.323
  283SOL     OW  864   1.076   0.683   3.326
  283SOL    HW1  865   0.996   0.622   3.329
  283SOL    HW2  866   1.157   0.630   3.302
  284SOL     OW  867   1.227   1.570   2.655
  284SOL    HW1  868   1.248   1.644   2.590
  284SOL    HW2  869   1.295   1.570   2.728
  285SOL     OW  870   0.459   1.152   2.603
  285SOL    HW1  871   0.388   1.125   2.668
  285SOL    HW2  872   0.433   1.124   2.510
  286SOL     OW  873   1.271   1.797   2.453
  286SOL    HW1  874   1.315   1.861   2.389
  286SOL    HW2  875   1.221   1.849   2.523
  287SOL     OW  876   1.032   0.549   1.878
  287SOL    HW1  877   0.991   0.631   1.839
  287SOL    HW2  878   1.096   0.575   1.951
  288SOL     OW  879   0.078   0.556   3.248
  288SOL    HW1  880   0.170   0.555   3.207
  288SOL    HW2  881   0.072   0.630   3.315
  289SOL     OW  882   0.561   0.222   3.009
  289SOL    HW1  883   0.599   0.138   3.046
  289SOL    HW2  884   0.473   0.241   3.053
  290SOL     OW  885   0.866   0.454   2.504
  290SOL    HW1  886   0.834   0.526   2.442
  290SOL    HW2  887   0.890   0.373   2.451
  291SOL     OW  888   1.017   0.039   2.615
  291SOL    HW1  889   0.945   0.044   2.546
  291SOL    HW2  890   0.993  -0.030   2.684
  292SOL     OW  891   1.429   1.173   2.729
  292SOL    HW1  892   1.374   1.089   2.722
  292SOL    HW2  893   1.455   1.202   2.637
  293SOL     OW  894   1.466   0.590   2.854
  293SOL    HW1  895   1.436   0.495   2.861
  293SOL    HW2  896   1.539   0.606   2.920
  294SOL     OW  897   1.857   0.833   2.239
  294SOL    HW1  898   1.899   0.769   2.303
  294SOL    HW2  899   1.819   0.782   2.161
  295SOL     OW  900   0.488   1.385   2.036
  295SOL    HW1  901   0.401   1.370   2.083
  295SOL    HW2  902   0.471   1.411   1.941
  296SOL     OW  903   1.664   1.280   2.519
  296SOL    HW1  904   1.763   1.288   2.533
  296SOL    HW2  905   1.619   1.364   2.550
  297SOL     OW  906   1.390   0.575   1.940
  297SOL    HW1  907   1.336   0.554   2.021
  297SOL    HW2  908   1.481   0.534   1.949
  298SOL     OW  909   0.527   0.256   2.190
  298SOL    HW1  910   0.554   0.197   2.115
  298SOL    HW2  911   0.527   0.351   2.159
  299SOL     OW  912   1.754   1.223   3.450
  299SOL    HW1  913   1.845   1.184   3.437
  299SOL    HW2  914   1.762   1.319   3.474
  300SOL     OW  915   1.064   1.347   3.202
  300SOL    HW1  916   0.984   1.324   3.257
  300SOL    HW2  917   1.147   1.321   3.251
  301SOL     OW  918   1.111   1.195   2.962
  301SOL    HW1  919   1.071   1.239   3.043
  301SOL    HW2  920   1.070   1.232   2.879
  302SOL     OW  921   1.638   1.099   2.941
  302SOL    HW1  922   1.643   1.180   3.000
  302SOL    HW2  923   1.552   1.101   2.890
  303SOL     OW  924   0.915   0.089   3.264
  303SOL    HW1  925   0.940   0.069   3.169
  303SOL    HW2  926   0.987   0.145   3.306
  304SOL     OW  927   0.705   1.050   2.230
  304SOL    HW1  928   0.691   1.057   2.329
  304SOL    HW2  929   0.789   0.999   2.212
  305SOL     OW  930   0.410   0.813   3.113
  305SOL    HW1  931   0.496   0.825   3.163
  305SOL    HW2  932   0.368   0.726   3.140
  306SOL     OW  933   1.274   0.386   3.124
  306SOL    HW1  934   1.295   0.460   3.188
  306SOL    HW2  935   1.185   0.403   3.081
  307SOL     OW  936   0.064   1.564   3.193
  307SOL    HW1  937   0.018   1.646   3.159
  307SOL    HW2  938   0.162   1.583   3.202
  308SOL     OW  939   0.367   1.100   2.363
  308SOL    HW1  940   0.360   1.183   2.307
  308SOL    HW2  941   0.371   1.020   2.303
  309SOL     OW  942   0.566   0.537   2.727
  309SOL    HW1  943   0.578   0.603   2.653
  309SOL    HW2  944   0.612   0.571   2.810
  310SOL     OW  945   1.252   1.348   2.250
  310SOL    HW1  946   1.302   1.425   2.290
  310SOL    HW2  947   1.157   1.350   2.282
  311SOL     OW  948   1.272   1.445   3.004
  311SOL    HW1  949   1.319   1.458   3.091
  311SOL    HW2  950   1.206   1.371   3.013
  312SOL     OW  951   1.582   0.639   2.334
  312SOL    HW1  952   1.551   0.700   2.407
  312SOL    HW2  953   1.632   0.691   2.265
  313SOL     OW  954   0.354   1.510   3.191
  313SOL    HW1  955   0.333   1.466   3.104
  313SOL    HW2  956   0.451   1.536   3.194
  314SOL     OW  957   0.402   0.751   3.460
  314SOL    HW1  958   0.470   0.806   3.413
  314SOL    HW2  959   0.442   0.663   3.487
  315SOL     OW  960   1.587   0.779   3.532
  315SOL    HW1  961   1.495   0.817   3.527
  315SOL    HW2  962   1.647   0.826   3.467
  316SOL     OW  963   0.573   0.870   2.891
  316SOL    HW1  964   0.617   0.959   2.882
  316SOL    HW2  965   0.510   0.870   2.968
  317SOL     OW  966   1.360   0.862   2.907
  317SOL    HW1  967   1.285   0.862   2.841
  317SOL    HW2  968   1.397   0.770   2.916
  318SOL     OW  969   1.209   0.525   2.137
  318SOL    HW1  970   1.222   0.441   2.191
  318SOL    HW2  971   1.180   0.599   2.197
  319SOL     OW  972   0.307   0.213   3.093
  319SOL    HW1  973   0.284   0.250   3.183
  319SOL    HW2  974   0.277   0.118   3.087
  320SOL     OW  975   0.037   1.310   3.144
  320SOL    HW1  976   0.090   1.261   3.212
  320SOL    HW2  977   0.059   1.408   3.149
  321SOL     OW  978   0.732   0.634   2.926
  321SOL    HW1  979   0.791   0.608   2.850
  321SOL    HW2  980   0.704   0.730   2.915
  322SOL     OW  981   0.307   0.063   2.480
  322SOL    HW1  982   0.296   0.157   2.513
  322SOL    HW2  983   0.302   0.000   2.557
  323SOL     OW  984   1.622   0.367   2.236
  323SOL    HW1  985   1.624   0.291   2.300
  323SOL    HW2  986   1.574   0.444   2.276
  324SOL     OW  987   1.023   0.766   2.828
  324SOL    HW1  988   1.038   0.787   2.924
  324SOL    HW2  989   0.993   0.671   2.819
  325SOL     OW  990   1.859   1.518   3.467
  325SOL    HW1  991   1.873   1.545   3.372
  325SOL    HW2  992   1.942   1.540   3.520
  326SOL     OW  993   1.540   0.274   1.987
  326SOL    HW1  994   1.479   0.199   2.010
  326SOL    HW2  995   1.562   0.326   2.070
  327SOL     OW  996   1.303   0.838   1.904
  327SOL    HW1  997   1.337   0.745   1.919
  327SOL    HW2  998   1.321   0.865   1.809
  328SOL     OW  999   1.068   1.333   2.711
  328SOL    HW1 1000   1.075   1.249   2.656
  328SOL    HW2 1001   1.130   1.402   2.675
  329SOL     OW 1002   0.319   0.810   2.811
  329SOL    HW1 1003   0.412   0.846   2.816
  329SOL    HW2 1004   0.313   0.725   2.863
  330SOL     OW 1005   0.339   0.509   2.868
  330SOL    HW1 1006   0.287   0.426   2.851
  330SOL    HW2 1007   0.416   0.514   2.804
  331SOL     OW 1008   1.160   0.207   3.339
  331SOL    HW1 1009   1.160   0.271   3.416
  331SOL    HW2 1010   1.188   0.255   3.256
  332SOL     OW 1011   0.008   1.326   2.062
  332SOL    HW1 1012  -0.085   1.347   2.031
  332SOL    HW2 1013   0.018   1.227   2.075
  333SOL     OW 1014   0.088   1.801   2.789
  333SOL    HW1 1015   0.046   1.715   2.762
  333SOL    HW2 1016   0.182   1.804   2.755
  334SOL     OW 1017   0.504   1.568   2.772
  334SOL    HW1 1018   0.570   1.642   2.781
  334SOL    HW2 1019   0.548   1.489   2.730
  335SOL     OW 1020   1.002   0.796   3.100
  335SOL    HW1 1021   1.043   0.764   3.186
  335SOL    HW2 1022   0.906   0.769   3.097
  336SOL     OW 1023   0.040   0.544   2.976
  336SOL    HW1 1024   0.125   0.511   2.935
  336SOL    HW2 1025   0.053   0.559   3.074
  337SOL     OW 1026   0.815   0.572   2.187
  337SOL    HW1 1027   0.822   0.483   2.141
  337SOL    HW2 1028   0.721   0.606   2.179
  338SOL     OW 1029   1.657   0.604   3.068
  338SOL    HW1 1030   1.619   0.535   3.130
  338SOL    HW2 1031   1.739   0.568   3.024
  339SOL     OW 1032   0.252   1.564   3.606
  339SOL    HW1 1033   0.222   1.621   3.682
  339SOL    HW2 1034   0.245   1.467   3.632
  340SOL     OW 1035   0.671   0.464   3.131
  340SOL    HW1 1036   0.637   0.375   3.101
  340SOL    HW2 1037   0.697   0.518   3.051
  341SOL     OW 1038   0.930   1.678   3.327
  341SOL    HW1 1039   0.906   1.660   3.232
  341SOL    HW2 1040   0.960   1.772   3.337
  342SOL     OW 1041   0.473   0.500   2.053
  342SOL    HW1 1042   0.534   0.580   2.057
  342SOL    HW2 1043   0.378   0.531   2.060
  343SOL     OW 1044   0.159   1.137   3.328
  343SOL    HW1 1045   0.181   1.076   3.404
  343SOL    HW2 1046   0.169   1.088   3.242
  344SOL     OW 1047   1.347   1.059   3.096
  344SOL    HW1 1048   1.371   0.996   3.022
  344SOL    HW2 1049   1.257   1.099   3.078
  345SOL     OW 1050   1.302   0.855   2.171
  345SOL    HW1 1051   1.216   0.824   2.213
  345SOL    HW2 1052   1.298   0.841   2.072
  346SOL     OW 1053   1.759   1.747   3.016
  346SOL    HW1 1054   1.820   1.777   2.943
  346SOL    HW2 1055   1.721   1.658   2.994
  347SOL     OW 1056   1.252   1.731   2.990
  347SOL    HW1 1057   1.336   1.736   2.936
  347SOL    HW2 1058   1.229   1.635   3.008
  348SOL     OW 1059   0.083   1.258   2.884
  348SOL    HW1 1060   0.078   1.257   2.984
  348SOL    HW2 1061   0.000   1.217   2.846
  349SOL     OW 1062   1.726   0.135   2.385
  349SOL    HW1 1063   1.799   0.118   2.318
  349SOL    HW2 1064   1.695   0.048   2.423
  350SOL     OW 1065   1.388   1.573   2.339
  350SOL    HW1 1066   1.455   1.585   2.265
  350SOL    HW2 1067   1.348   1.662   2.362
  351SOL     OW 1068   1.280   0.927   2.534
  351SOL    HW1 1069   1.340   0.846   2.536
  351SOL    HW2 1070   1.320   0.996   2.474
  352SOL     OW 1071   0.830   1.273   3.284
  352SOL    HW1 1072   0.825   1.306   3.379
  352SOL    HW2 1073   0.744   1.292   3.238
  353SOL     OW 1074   0.672   1.616   2.016
  353SOL    HW1 1075   0.681   1.626   1.917
  353SOL    HW2 1076   0.632   1.527   2.037
  354SOL     OW 1077   1.650   1.720   3.256
  354SOL    HW1 1078   1.703   1.730   3.172
  354SOL    HW2 1079   1.623   1.810   3.290
  355SOL     OW 1080   1.841   0.175   2.825
  355SOL    HW1 1081   1.880   0.090   2.789
  355SOL    HW2 1082   1.743   0.177   2.806
  356SOL     OW 1083   0.263   0.326   2.582
  356SOL    HW1 1084   0.184   0.377   2.548
  356SOL    HW2 1085   0.254   0.311   2.680
  357SOL     OW 1086   1.194   1.612   1.893
  357SOL    HW1 1087   1.200   1.519   1.930
  357SOL    HW2 1088   1.135   1.612   1.813
  358SOL     OW 1089   0.822   1.002   3.234
  358SOL    HW1 1090   0.862   1.001   3.142
  358SOL    HW2 1091   0.832   1.094   3.274
  359SOL     OW 1092   0.916   0.910   2.153
  359SOL    HW1 1093   0.979   0.948   2.085
  359SOL    HW2 1094   0.956   0.827   2.192
  360SOL     OW 1095   0.372   1.288   3.352
  360SOL    HW1 1096   0.359   1.381   3.318
  360SOL    HW2 1097   0.288   1.236   3.339
  361SOL     OW 1098   1.614   1.292   3.151
  361SOL    HW1 1099   1.674   1.295   3.231
  361SOL    HW2 1100   1.539   1.356   3.164
  362SOL     OW 1101   1.039   1.098   2.558
  362SOL    HW1 1102   0.969   1.051   2.612
  362SOL    HW2 1103   1.098   1.030   2.515
  363SOL     OW 1104   1.014   0.236   2.833
  363SOL    HW1 1105   1.006   0.200   2.740
  363SOL    HW2 1106   1.012   0.160   2.898
  364SOL     OW 1107   0.590   1.487   2.353
  364SOL    HW1 1108   0.632   1.429   2.283
  364SOL    HW2 1109   0.546   1.566   2.309
  365SOL     OW 1110   1.709   0.385   3.243
  365SOL    HW1 1111   1.782   0.454   3.247
  365SOL    HW2 1112   1.737   0.310   3.184
  366SOL     OW 1113   0.255   1.348   2.152
  366SOL    HW1 1114   0.159   1.349   2.125
  366SOL    HW2 1115   0.267   1.401   2.236
  367SOL     OW 1116   0.105   1.013   3.588
  367SOL    HW1 1117   0.028   0.980   3.642
  367SOL    HW2 1118   0.190   0.983   3.630
  368SOL     OW 1119   0.672   0.203   3.351
  368SOL    HW1 1120   0.762   0.187   3.311
  368SOL    HW2 1121   0.680   0.208   3.450
  369SOL     OW 1122   0.075   0.345   1.895
  369SOL    HW1 1123  -0.017   0.317   1.866
  369SOL    HW2 1124   0.106   0.422   1.839
  370SOL     OW 1125   1.440   0.856   3.260
  370SOL    HW1 1126   1.383   0.908   3.197
  370SOL    HW2 1127   1.536   0.868   3.236
  371SOL     OW 1128   0.072   0.166   2.180
  371SOL    HW1 1129   0.055   0.249   2.126
  371SOL    HW2 1130   0.162   0.129   2.158
  372SOL     OW 1131   1.183   1.335   1.981
  372SOL    HW1 1132   1.084   1.324   1.983
  372SOL    HW2 1133   1.217   1.350   2.074
  373SOL     OW 1134   0.613   0.842   3.293
  373SOL    HW1 1135   0.669   0.923   3.276
  373SOL    HW2 1136   0.672   0.762   3.296
  374SOL     OW 1137   1.493   1.767   2.821
  374SOL    HW1 1138   1.526   1.831   2.752
  374SOL    HW2 1139   1.559   1.761   2.896
  375SOL     OW 1140   0.716   0.565   3.570
  375SOL    HW1 1141   0.735   0.630   3.644
  375SOL    HW2 1142   0.776   0.485   3.579
  376SOL     OW 1143   0.390   1.741   3.422
  376SOL    HW1 1144   0.299   1.782   3.420
  376SOL    HW2 1145   0.383   1.647   3.454
  377SOL     OW 1146   1.674   0.883   3.116
  377SOL    HW1 1147   1.647   0.794   3.079
  377SOL    HW2 1148   1.675   0.951   3.043
  378SOL     OW 1149   1.225   0.325   2.311
  378SOL    HW1 1150   1.290   0.251   2.300
  378SOL    HW2 1151   1.245   0.375   2.395
  379SOL     OW 1152   0.594   0.745   2.514
  379SOL    HW1 1153   0.644   0.830   2.495
  379SOL    HW2 1154   0.506   0.747   2.466
  380SOL     OW 1155   1.730   0.934   3.379
  380SOL    HW1 1156   1.768   1.025   3.394
  380SOL    HW2 1157   1.722   0.917   3.280
  381SOL     OW 1158   0.859   1.374   1.878
  381SOL    HW1 1159   0.813   1.389   1.966
  381SOL    HW2 1160   0.903   1.459   1.848
  382SOL     OW 1161   0.661   1.790   2.815
  382SOL    HW1 1162   0.615   1.878   2.802
  382SOL    HW2 1163   0.760   1.802   2.808
  383SOL     OW 1164   0.859   0.956   2.723
  383SOL    HW1 1165   0.913   0.887   2.771
  383SOL    HW2 1166   0.827   1.025   2.789
  384SOL     OW 1167   1.083   0.984   1.949
  384SOL    HW1 1168   1.060   1.037   1.867
  384SOL    HW2 1169   1.164   0.928   1.930
  385SOL     OW 1170   1.861   1.569   2.713
  385SOL    HW1 1171   1.790   1.557   2.643
  385SOL    HW2 1172   1.862   1.490   2.773
  386SOL     OW 1173   0.079   1.240   2.515
  386SOL    HW1 1174   0.078   1.193   2.603
  386SOL    HW2 1175   0.161   1.212   2.464
  387SOL     OW 1176   0.672   1.391   3.486
  387SOL    HW1 1177   0.594   1.341   3.524
  387SOL    HW2 1178   0.669   1.486   3.517
  388SOL     OW 1179   1.824   0.192   3.089
  388SOL    HW1 1180   1.820   0.102   3.133
  388SOL    HW2 1181   1.827   0.181   2.990
  389SOL     OW 1182   0.428   0.424   2.382
  389SOL    HW1 1183   0.458   0.352   2.320
  389SOL    HW2 1184   0.389   0.384   2.465
  390SOL     OW 1185   1.705   1.487   2.966
  390SOL    HW1 1186   1.612   1.462   2.939
  390SOL    HW2 1187   1.731   1.437   3.048
  391SOL     OW 1188   0.317   0.547   3.142
  391SOL    HW1 1189   0.355   0.488   3.214
  391SOL    HW2 1190   0.357   0.521   3.054
  392SOL     OW 1191   0.812   1.586   2.549
  392SOL    HW1 1192   0.844   1.596   2.455
  392SOL    HW2 1193   0.733   1.524   2.551
  393SOL     OW 1194   1.424   0.214   2.974
  393SOL    HW1 1195   1.476   0.149   3.029
  393SOL    HW2 1196   1.375   0.277   3.035
  394SOL     OW 1197   1.001   0.034   3.016
  394SOL    HW1 1198   0.938  -0.038   2.985
  394SOL    HW2 1199   1.094  -0.002   3.016
  395SOL     OW 1200   0.770   1.330   2.163
  395SOL    HW1 1201   0.724   1.243   2.180
  395SOL    HW2 1202   0.861   1.327   2.204
  396SOL     OW 1203   0.618   1.567   3.146
  396SOL    HW1 1204   0.613   1.649   3.203
  396SOL    HW2 1205   0.707   1.564   3.101
  397SOL     OW 1206   1.352   0.052   2.030
  397SOL    HW1 1207   1.387   0.011   1.946
  397SOL    HW2 1208   1.262   0.014   2.050
  398SOL     OW 1209   1.300   0.453   2.553
  398SOL    HW1 1210   1.241   0.533   2.557
  398SOL    HW2 1211   1.315   0.418   2.646
  399SOL     OW 1212   1.593   0.221   2.744
  399SOL    HW1 1213   1.509   0.220   2.798
  399SOL    HW2 1214   1.595   0.304   2.688
  400SOL     OW 1215   0.039   1.077   2.162
  400SOL    HW1 1216   0.138   1.066   2.153
  400SOL    HW2 1217  -0.001   0.991   2.194
  401SOL     OW 1218   0.875   1.646   2.199
  401SOL    HW1 1219   0.798   1.611   2.145
  401SOL    HW2 1220   0.843   1.717   2.261
  402SOL     OW 1221   0.230   2.490   0.113
  402SOL    HW1 1222   0.137   2.488   0.150
  402SOL    HW2 1223   0.231   2.451   0.021
  403SOL     OW 1224   0.225   2.137   0.996
  403SOL    HW1 1225   0.260   2.120   1.088
  403SOL    HW2 1226   0.137   2.092   0.984
  404SOL     OW 1227   0.019   2.230   0.647
  404SOL    HW1 1228  -0.063   2.273   0.686
  404SOL    HW2 1229  -0.009   2.157   0.584
  405SOL     OW 1230   0.569   3.137   1.165
  405SOL    HW1 1231   0.476   3.130   1.128
  405SOL    HW2 1232   0.580   3.226   1.209
  406SOL     OW 1233   1.555   3.373   0.703
  406SOL    HW1 1234   1.498   3.357   0.784
  406SOL    HW2 1235   1.496   3.383   0.623
  407SOL     OW 1236   1.135   2.565   0.717
  407SOL    HW1 1237   1.192   2.643   0.692
  407SOL    HW2 1238   1.075   2.591   0.793
  408SOL     OW 1239   1.755   2.469   0.231
  408SOL    HW1 1240   1.743   2.456   0.132
  408SOL    HW2 1241   1.725   2.388   0.280
  409SOL     OW 1242   0.768   3.006   1.023
  409SOL    HW1 1243   0.690   3.023   1.083
  409SOL    HW2 1244   0.802   3.093   0.987
  410SOL     OW 1245   0.850   2.660   1.823
  410SOL    HW1 1246   0.846   2.736   1.888
  410SOL    HW2 1247   0.872   2.696   1.732
  411SOL     OW 1248   0.685   2.874   0.665
  411SOL    HW1 1249   0.754   2.858   0.735
  411SOL    HW2 1250   0.612   2.931   0.703
  412SOL     OW 1251   0.686   3.023   1.803
  412SOL    HW1 1252   0.746   3.102   1.817
  412SOL    HW2 1253   0.600   3.054   1.762
  413SOL     OW 1254   0.335   3.297   1.061
  413SOL    HW1 1255   0.257   3.266   1.008
  413SOL    HW2 1256   0.393   3.355   1.004
  414SOL     OW 1257   1.460   3.367   1.339
  414SOL    HW1 1258   1.484   3.461   1.365
  414SOL    HW2 1259   1.444   3.313   1.421
  415SOL     OW 1260   0.438   2.254   1.499
  415SOL    HW1 1261   0.520   2.198   1.508
  415SOL    HW2 1262   0.357   2.196   1.503
  416SOL     OW 1263   1.603   2.309   0.737
  416SOL    HW1 1264   1.529   2.355   0.687
  416SOL    HW2 1265   1.654   2.377   0.790
  417SOL     OW 1266   1.127   3.203   1.690
  417SOL    HW1 1267   1.174   3.203   1.778
  417SOL    HW2 1268   1.079   3.116   1.679
  418SOL     OW 1269   0.230   3.296   0.538
  418SOL    HW1 1270   0.204   3.392   0.538
  418SOL    HW2 1271   0.159   3.242   0.583
  419SOL     OW 1272   0.240   2.953   0.886
  419SOL    HW1 1273   0.254   2.869   0.938
  419SOL    HW2 1274   0.185   3.017   0.941
  420SOL     OW 1275   0.606   2.826   0.123
  420SOL    HW1 1276   0.613   2.910   0.069
  420SOL    HW2 1277   0.652   2.839   0.211
  421SOL     OW 1278   1.594   1.976   1.480
  421SOL    HW1 1279   1.576   2.043   1.408
  421SOL    HW2 1280   1.591   2.022   1.569
  422SOL     OW 1281   0.122   2.505   0.563
  422SOL    HW1 1282   0.077   2.417   0.580
  422SOL    HW2 1283   0.121   2.559   0.647
  423SOL     OW 1284   0.027   3.458   0.117
  423SOL    HW1 1285   0.008   3.362   0.138
  423SOL    HW2 1286  -0.006   3.516   0.192
  424SOL     OW 1287   1.689   2.784   0.612
  424SOL    HW1 1288   1.784   2.755   0.620
  424SOL    HW2 1289   1.681   2.849   0.537
  425SOL     OW 1290   1.641   2.970   0.432
  425SOL    HW1 1291   1.727   2.972   0.380
  425SOL    HW2 1292   1.655   3.017   0.520
  426SOL     OW 1293   0.113   2.599   1.597
  426SOL    HW1 1294   0.201   2.586   1.642
  426SOL    HW2 1295   0.100   2.696   1.575
  427SOL     OW 1296   0.613   3.227   0.726
  427SOL    HW1 1297   0.564   3.140   0.735
  427SOL    HW2 1298   0.590   3.270   0.639
  428SOL     OW 1299   1.293   3.090   1.423
  428SOL    HW1 1300   1.330   3.017   1.365
  428SOL    HW2 1301   1.345   3.095   1.508
  429SOL     OW 1302   0.809   1.866   0.502
  429SOL    HW1 1303   0.849   1.957   0.493
  429SOL    HW2 1304   0.709   1.874   0.508
  430SOL     OW 1305   0.197   2.838   1.264
  430SOL    HW1 1306   0.286   2.793   1.250
  430SOL    HW2 1307   0.124   2.773   1.245
  431SOL     OW 1308   1.525   2.861   0.190
  431SOL    HW1 1309   1.462   2.785   0.203
  431SOL    HW2 1310   1.573   2.879   0.276
  432SOL     OW 1311   0.317   2.113   1.801
  432SOL    HW1 1312   0.388   2.184   1.807
  432SOL    HW2 1313   0.229   2.152   1.829
  433SOL     OW 1314   1.466   3.279   0.953
  433SOL    HW1 1315   1.407   3.285   1.033
  433SOL    HW2 1316   1.451   3.191   0.907
  434SOL     OW 1317   0.598   2.591   0.270
  434SOL    HW1 1318   0.622   2.660   0.202
  434SOL    HW2 1319   0.520   2.624   0.324
  435SOL     OW 1320   1.281   2.207   0.944
  435SOL    HW1 1321   1.195   2.157   0.931
  435SOL    HW2 1322   1.343   2.153   1.000
  436SOL     OW 1323   1.576   3.524   0.307
  436SOL    HW1 1324   1.665   3.570   0.310
  436SOL    HW2 1325   1.555   3.500   0.212
  437SOL     OW 1326   0.807   2.467   1.465
  437SOL    HW1 1327   0.760   2.464   1.554
  437SOL    HW2 1328   0.756   2.412   1.399
  438SOL     OW 1329   1.394   2.331   1.674
  438SOL    HW1 1330   1.374   2.374   1.762
  438SOL    HW2 1331   1.472   2.269   1.683
  439SOL     OW 1332   0.973   2.752   1.572
  439SOL    HW1 1333   1.019   2.668   1.543
  439SOL    HW2 1334   0.917   2.786   1.497
  440SOL     OW 1335   0.991   2.272   1.242
  440SOL    HW1 1336   0.914   2.306   1.296
  440SOL    HW2 1337   0.957   2.221   1.163
  441SOL     OW 1338   1.041   2.563   0.429
  441SOL    HW1 1339   1.067   2.559   0.525
  441SOL    HW2 1340   0.956   2.512   0.415
  442SOL     OW 1341   0.076   2.673   0.789
  442SOL    HW1 1342   0.175   2.661   0.798
  442SOL    HW2 1343   0.052   2.768   0.810
  443SOL     OW 1344   0.865   2.210   0.195
  443SOL    HW1 1345   0.924   2.273   0.146
  443SOL    HW2 1346   0.884   2.116   0.166
  444SOL     OW 1347   1.719   2.447   1.831
  444SOL    HW1 1348   1.693   2.536   1.795
  444SOL    HW2 1349   1.717   2.379   1.758
  445SOL     OW 1350   1.362   3.006   0.545
  445SOL    HW1 1351   1.445   2.977   0.497
  445SOL    HW2 1352   1.313   3.073   0.489
  446SOL     OW 1353   0.550   2.058   0.885
  446SOL    HW1 1354   0.545   2.053   0.985
  446SOL    HW2 1355   0.552   2.154   0.856
  447SOL     OW 1356   1.008   3.318   0.477
  447SOL    HW1 1357   0.962   3.390   0.425
  447SOL    HW2 1358   1.004   3.338   0.575
  448SOL     OW 1359   1.795   2.928   0.873
  448SOL    HW1 1360   1.733   2.913   0.797
  448SOL    HW2 1361   1.743   2.939   0.958
  449SOL     OW 1362   1.227   3.412   1.506
  449SOL    HW1 1363   1.233   3.335   1.570
  449SOL    HW2 1364   1.175   3.386   1.426
  450SOL     OW 1365   0.321   2.805   0.242
  450SOL    HW1 1366   0.403   2.844   0.200
  450SOL    HW2 1367   0.294   2.723   0.193
  451SOL     OW 1368   1.458   2.597   0.728
  451SOL    HW1 1369   1.453   2.532   0.803
  451SOL    HW2 1370   1.538   2.656   0.741
  452SOL     OW 1371   0.461   3.128   1.727
  452SOL    HW1 1372   0.411   3.129   1.641
  452SOL    HW2 1373   0.398   3.110   1.803
  453SOL     OW 1374   0.202   2.147   1.498
  453SOL    HW1 1375   0.122   2.207   1.485
  453SOL    HW2 1376   0.192   2.098   1.584
  454SOL     OW 1377   1.632   3.239   0.081
  454SOL    HW1 1378   1.600   3.333   0.071
  454SOL    HW2 1379   1.556   3.176   0.069
  455SOL     OW 1380   1.400   1.969   0.426
  455SOL    HW1 1381   1.376   1.932   0.336
  455SOL    HW2 1382   1.499   1.985   0.430
  456SOL     OW 1383   0.382   2.562   0.480
  456SOL    HW1 1384   0.427   2.472   0.477
  456SOL    HW2 1385   0.288   2.551   0.513
  457SOL     OW 1386   1.547   2.084   1.729
  457SOL    HW1 1387   1.542   2.121   1.821
  457SOL    HW2 1388   1.475   2.015   1.717
  458SOL     OW 1389   0.614   1.984   0.117
  458SOL    HW1 1390   0.712   1.962   0.124
  458SOL    HW2 1391   0.583   1.967   0.024
  459SOL     OW 1392   0.781   2.126   1.749
  459SOL    HW1 1393   0.848   2.065   1.792
  459SOL    HW2 1394   0.708   2.145   1.814
  460SOL     OW 1395   0.888   3.376   1.195
  460SOL    HW1 1396   0.865   3.351   1.101
  460SOL    HW2 1397   0.949   3.307   1.234
  461SOL     OW 1398   1.351   2.452   1.433
  461SOL    HW1 1399   1.379   2.409   1.518
  461SOL    HW2 1400   1.376   2.548   1.434
  462SOL     OW 1401   0.803   3.264   0.924
  462SOL    HW1 1402   0.893   3.278   0.882
  462SOL    HW2 1403   0.732   3.266   0.853
  463SOL     OW 1404   0.922   2.365   0.899
  463SOL    HW1 1405   0.897   2.356   0.803
  463SOL    HW2 1406   0.970   2.283   0.930
  464SOL     OW 1407   0.539   1.926   0.512
  464SOL    HW1 1408   0.458   1.927   0.570
  464SOL    HW2 1409   0.542   2.009   0.457
  465SOL     OW 1410   1.434   3.050   0.041
  465SOL    HW1 1411   1.466   2.974   0.098
  465SOL    HW2 1412   1.342   3.077   0.071
  466SOL     OW 1413   0.297   1.897   0.171
  466SOL    HW1 1414   0.346   1.981   0.150
  466SOL    HW2 1415   0.359   1.832   0.216
  467SOL     OW 1416   0.935   2.098   0.480
  467SOL    HW1 1417   0.887   2.139   0.402
  467SOL    HW2 1418   1.034   2.096   0.461
  468SOL     OW 1419   1.076   2.545   1.464
  468SOL    HW1 1420   0.996   2.484   1.467
  468SOL    HW2 1421   1.157   2.492   1.440
  469SOL     OW 1422   1.227   3.432   0.793
  469SOL    HW1 1423   1.248   3.506   0.728
  469SOL    HW2 1424   1.295   3.432   0.866
  470SOL     OW 1425   0.459   3.014   0.741
  470SOL    HW1 1426   0.388   2.987   0.806
  470SOL    HW2 1427   0.433   2.986   0.648
  471SOL     OW 1428   1.032   2.411   0.016
  471SOL    HW1 1429   0.991   2.493  -0.023
  471SOL    HW2 1430   1.096   2.437   0.089
  472SOL     OW 1431   0.078   2.418   1.386
  472SOL    HW1 1432   0.170   2.417   1.345
  472SOL    HW2 1433   0.072   2.492   1.453
  473SOL     OW 1434   0.561   2.084   1.147
  473SOL    HW1 1435   0.599   2.000   1.184
  473SOL    HW2 1436   0.473   2.103   1.191
  474SOL     OW 1437   0.866   2.316   0.642
  474SOL    HW1 1438   0.834   2.388   0.580
  474SOL    HW2 1439   0.890   2.235   0.589
  475SOL     OW 1440   1.017   1.901   0.753
  475SOL    HW1 1441   0.945   1.906   0.684
  475SOL    HW2 1442   0.993   1.832   0.822
  476SOL     OW 1443   1.429   3.035   0.867
  476SOL    HW1 1444   1.374   2.951   0.860
  476SOL    HW2 1445   1.455   3.064   0.775
  477SOL     OW 1446   1.466   2.452   0.992
  477SOL    HW1 1447   1.436   2.357   0.999
  477SOL    HW2 1448   1.539   2.468   1.058
  478SOL     OW 1449   1.857   2.695   0.377
  478SOL    HW1 1450   1.899   2.631   0.441
  478SOL    HW2 1451   1.819   2.644   0.299
  479SOL     OW 1452   0.488   3.247   0.174
  479SOL    HW1 1453   0.401   3.232   0.221
  479SOL    HW2 1454   0.471   3.273   0.079
  480SOL     OW 1455   1.664   3.142   0.657
  480SOL    HW1 1456   1.763   3.150   0.671
  480SOL    HW2 1457   1.619   3.226   0.688
  481SOL     OW 1458   1.390   2.437   0.078
  481SOL    HW1 1459   1.336   2.416   0.159
  481SOL    HW2 1460   1.481   2.396   0.087
  482SOL     OW 1461   0.527   2.118   0.328
  482SOL    HW1 1462   0.554   2.059   0.253
  482SOL    HW2 1463   0.527   2.213   0.297
  483SOL     OW 1464   1.754   3.085   1.588
  483SOL    HW1 1465   1.845   3.046   1.575
  483SOL    HW2 1466   1.762   3.181   1.612
  484SOL     OW 1467   1.064   3.209   1.340
  484SOL    HW1 1468   0.984   3.186   1.395
  484SOL    HW2 1469   1.147   3.183   1.389
  485SOL     OW 1470   1.592   3.491   1.625
  485SOL    HW1 1471   1.619   3.525   1.535
  485SOL    HW2 1472   1.671   3.453   1.671
  486SOL     OW 1473   1.111   3.057   1.100
  486SOL    HW1 1474   1.071   3.101   1.181
  486SOL    HW2 1475   1.070   3.094   1.017
  487SOL     OW 1476   1.638   2.961   1.079
  487SOL    HW1 1477   1.643   3.042   1.138
  487SOL    HW2 1478   1.552   2.963   1.028
  488SOL     OW 1479   0.915   1.951   1.402
  488SOL    HW1 1480   0.940   1.931   1.307
  488SOL    HW2 1481   0.987   2.007   1.444
  489SOL     OW 1482   0.980   2.978   1.719
  489SOL    HW1 1483   0.881   2.984   1.729
  489SOL    HW2 1484   1.003   2.898   1.663
  490SOL     OW 1485   0.705   2.912   0.368
  490SOL    HW1 1486   0.691   2.919   0.467
  490SOL    HW2 1487   0.789   2.861   0.350
  491SOL     OW 1488   0.410   2.675   1.251
  491SOL    HW1 1489   0.496   2.687   1.301
  491SOL    HW2 1490   0.368   2.588   1.278
  492SOL     OW 1491   1.274   2.248   1.262
  492SOL    HW1 1492   1.295   2.322   1.326
  492SOL    HW2 1493   1.185   2.265   1.219
  493SOL     OW 1494   0.064   3.426   1.331
  493SOL    HW1 1495   0.018   3.508   1.297
  493SOL    HW2 1496   0.162   3.445   1.340
  494SOL     OW 1497   0.367   2.962   0.501
  494SOL    HW1 1498   0.360   3.045   0.445
  494SOL    HW2 1499   0.371   2.882   0.441
  495SOL     OW 1500   0.566   2.399   0.865
  495SOL    HW1 1501   0.578   2.465   0.791
  495SOL    HW2 1502   0.612   2.433   0.948
  496SOL     OW 1503   1.252   3.210   0.388
  496SOL    HW1 1504   1.302   3.287   0.428
  496SOL    HW2 1505   1.157   3.212   0.420
  497SOL     OW 1506   1.272   3.307   1.142
  497SOL    HW1 1507   1.319   3.320   1.229
  497SOL    HW2 1508   1.206   3.233   1.151
  498SOL     OW 1509   1.582   2.501   0.472
  498SOL    HW1 1510   1.551   2.562   0.545
  498SOL    HW2 1511   1.632   2.553   0.403
  499SOL     OW 1512   0.354   3.372   1.329
  499SOL    HW1 1513   0.333   3.328   1.242
  499SOL    HW2 1514   0.451   3.398   1.332
  500SOL     OW 1515   0.402   2.613   1.598
  500SOL    HW1 1516   0.470   2.668   1.551
  500SOL    HW2 1517   0.442   2.525   1.625
  501SOL     OW 1518   1.587   2.641   1.670
  501SOL    HW1 1519   1.495   2.679   1.665
  501SOL    HW2 1520   1.647   2.688   1.605
  502SOL     OW 1521   1.013   1.967   1.770
  502SOL    HW1 1522   1.019   2.052   1.718
  502SOL    HW2 1523   1.045   1.891   1.713
  503SOL     OW 1524   0.504   1.912   1.740
  503SOL    HW1 1525   0.462   1.855   1.670
  503SOL    HW2 1526   0.438   1.981   1.772
  504SOL     OW 1527   0.573   2.732   1.029
  504SOL    HW1 1528   0.617   2.821   1.020
  504SOL    HW2 1529   0.510   2.732   1.106
  505SOL     OW 1530   1.360   2.724   1.045
  505SOL    HW1 1531   1.285   2.724   0.979
  505SOL    HW2 1532   1.397   2.632   1.054
  506SOL     OW 1533   1.209   2.387   0.275
  506SOL    HW1 1534   1.222   2.303   0.329
  506SOL    HW2 1535   1.180   2.461   0.335
  507SOL     OW 1536   0.307   2.075   1.231
  507SOL    HW1 1537   0.284   2.112   1.321
  507SOL    HW2 1538   0.277   1.980   1.225
  508SOL     OW 1539   0.037   3.172   1.282
  508SOL    HW1 1540   0.090   3.123   1.350
  508SOL    HW2 1541   0.059   3.270   1.287
  509SOL     OW 1542   0.732   2.496   1.064
  509SOL    HW1 1543   0.791   2.470   0.988
  509SOL    HW2 1544   0.704   2.592   1.053
  510SOL     OW 1545   1.728   2.797   1.854
  510SOL    HW1 1546   1.682   2.790   1.765
  510SOL    HW2 1547   1.666   2.841   1.920
  511SOL     OW 1548   0.307   1.925   0.618
  511SOL    HW1 1549   0.296   2.019   0.651
  511SOL    HW2 1550   0.302   1.862   0.695
  512SOL     OW 1551   1.622   2.229   0.374
  512SOL    HW1 1552   1.624   2.153   0.438
  512SOL    HW2 1553   1.574   2.306   0.414
  513SOL     OW 1554   1.023   2.628   0.966
  513SOL    HW1 1555   1.038   2.649   1.062
  513SOL    HW2 1556   0.993   2.533   0.957
  514SOL     OW 1557   0.980   3.435   1.700
  514SOL    HW1 1558   0.960   3.479   1.612
  514SOL    HW2 1559   1.019   3.344   1.684
  515SOL     OW 1560   1.859   3.380   1.605
  515SOL    HW1 1561   1.873   3.407   1.510
  515SOL    HW2 1562   1.942   3.402   1.658
  516SOL     OW 1563   0.350   2.760   1.804
  516SOL    HW1 1564   0.426   2.804   1.852
  516SOL    HW2 1565   0.385   2.713   1.722
  517SOL     OW 1566   1.540   2.136   0.125
  517SOL    HW1 1567   1.479   2.061   0.148
  517SOL    HW2 1568   1.562   2.188   0.208
  518SOL     OW 1569   1.303   2.700   0.042
  518SOL    HW1 1570   1.337   2.607   0.057
  518SOL    HW2 1571   1.321   2.727  -0.053
  519SOL     OW 1572   1.068   3.195   0.849
  519SOL    HW1 1573   1.075   3.111   0.794
  519SOL    HW2 1574   1.130   3.264   0.813
  520SOL     OW 1575   0.319   2.672   0.949
  520SOL    HW1 1576   0.412   2.708   0.954
  520SOL    HW2 1577   0.313   2.587   1.001
  521SOL     OW 1578   0.339   2.371   1.006
  521SOL    HW1 1579   0.287   2.288   0.989
  521SOL    HW2 1580   0.416   2.376   0.942
  522SOL     OW 1581   1.138   2.242   1.678
  522SOL    HW1 1582   1.093   2.305   1.742
  522SOL    HW2 1583   1.231   2.273   1.661
  523SOL     OW 1584   1.160   2.069   1.477
  523SOL    HW1 1585   1.160   2.133   1.554
  523SOL    HW2 1586   1.188   2.117   1.394
  524SOL     OW 1587   0.008   3.188   0.200
  524SOL    HW1 1588  -0.085   3.209   0.169
  524SOL    HW2 1589   0.018   3.089   0.213
  525SOL     OW 1590   0.088   3.663   0.927
  525SOL    HW1 1591   0.046   3.577   0.900
  525SOL    HW2 1592   0.182   3.666   0.893
  526SOL     OW 1593   0.504   3.430   0.910
  526SOL    HW1 1594   0.570   3.504   0.919
  526SOL    HW2 1595   0.548   3.351   0.868
  527SOL     OW 1596   1.002   2.658   1.238
  527SOL    HW1 1597   1.043   2.626   1.324
  527SOL    HW2 1598   0.906   2.631   1.235
  528SOL     OW 1599   0.040   2.406   1.114
  528SOL    HW1 1600   0.125   2.373   1.073
  528SOL    HW2 1601   0.053   2.421   1.212
  529SOL     OW 1602   0.189   2.382   1.722
  529SOL    HW1 1603   0.248   2.342   1.652
  529SOL    HW2 1604   0.131   2.453   1.681
  530SOL     OW 1605   1.369   2.812   1.660
  530SOL    HW1 1606   1.408   2.901   1.680
  530SOL    HW2 1607   1.379   2.792   1.563
  531SOL     OW 1608   0.815   2.434   0.325
  531SOL    HW1 1609   0.822   2.345   0.279
  531SOL    HW2 1610   0.721   2.468   0.317
  532SOL     OW 1611   1.657   2.466   1.206
  532SOL    HW1 1612   1.619   2.397   1.268
  532SOL    HW2 1613   1.739   2.430   1.162
  533SOL     OW 1614   0.252   3.426   1.744
  533SOL    HW1 1615   0.222   3.483   1.820
  533SOL    HW2 1616   0.245   3.329   1.770
  534SOL     OW 1617   0.671   2.326   1.269
  534SOL    HW1 1618   0.637   2.237   1.239
  534SOL    HW2 1619   0.697   2.380   1.189
  535SOL     OW 1620   0.473   2.362   0.191
  535SOL    HW1 1621   0.534   2.442   0.195
  535SOL    HW2 1622   0.378   2.393   0.198
  536SOL     OW 1623   0.159   2.999   1.466
  536SOL    HW1 1624   0.181   2.938   1.542
  536SOL    HW2 1625   0.169   2.950   1.380
  537SOL     OW 1626   1.347   2.921   1.234
  537SOL    HW1 1627   1.371   2.858   1.160
  537SOL    HW2 1628   1.257   2.961   1.216
  538SOL     OW 1629   1.302   2.717   0.309
  538SOL    HW1 1630   1.216   2.686   0.351
  538SOL    HW2 1631   1.298   2.703   0.210
  539SOL     OW 1632   1.252   3.593   1.128
  539SOL    HW1 1633   1.336   3.598   1.074
  539SOL    HW2 1634   1.229   3.497   1.146
  540SOL     OW 1635   0.083   3.120   1.022
  540SOL    HW1 1636   0.078   3.119   1.122
  540SOL    HW2 1637   0.000   3.079   0.984
  541SOL     OW 1638   0.903   1.948   0.133
  541SOL    HW1 1639   0.954   1.949   0.047
  541SOL    HW2 1640   0.959   1.906   0.204
  542SOL     OW 1641   1.726   1.997   0.523
  542SOL    HW1 1642   1.799   1.980   0.456
  542SOL    HW2 1643   1.695   1.910   0.561
  543SOL     OW 1644   1.388   3.435   0.477
  543SOL    HW1 1645   1.455   3.447   0.403
  543SOL    HW2 1646   1.348   3.524   0.500
  544SOL     OW 1647   0.130   3.656   1.851
  544SOL    HW1 1648   0.089   3.582   1.904
  544SOL    HW2 1649   0.194   3.707   1.909
  545SOL     OW 1650   1.280   2.789   0.672
  545SOL    HW1 1651   1.340   2.708   0.674
  545SOL    HW2 1652   1.320   2.858   0.612
  546SOL     OW 1653   0.830   3.135   1.422
  546SOL    HW1 1654   0.825   3.168   1.517
  546SOL    HW2 1655   0.744   3.154   1.376
  547SOL     OW 1656   0.672   3.478   0.154
  547SOL    HW1 1657   0.681   3.488   0.055
  547SOL    HW2 1658   0.632   3.389   0.175
  548SOL     OW 1659   1.841   2.037   0.963
  548SOL    HW1 1660   1.880   1.952   0.927
  548SOL    HW2 1661   1.743   2.039   0.944
  549SOL     OW 1662   0.263   2.188   0.720
  549SOL    HW1 1663   0.184   2.239   0.686
  549SOL    HW2 1664   0.254   2.173   0.818
  550SOL     OW 1665   1.194   3.474   0.031
  550SOL    HW1 1666   1.200   3.381   0.068
  550SOL    HW2 1667   1.135   3.474  -0.049
  551SOL     OW 1668   0.822   2.864   1.372
  551SOL    HW1 1669   0.862   2.863   1.280
  551SOL    HW2 1670   0.832   2.956   1.412
  552SOL     OW 1671   0.916   2.772   0.291
  552SOL    HW1 1672   0.979   2.810   0.223
  552SOL    HW2 1673   0.956   2.689   0.330
  553SOL     OW 1674   0.372   3.150   1.490
  553SOL    HW1 1675   0.359   3.243   1.456
  553SOL    HW2 1676   0.288   3.098   1.477
  554SOL     OW 1677   1.614   3.154   1.289
  554SOL    HW1 1678   1.674   3.157   1.369
  554SOL    HW2 1679   1.539   3.218   1.302
  555SOL     OW 1680   1.039   2.960   0.696
  555SOL    HW1 1681   0.969   2.913   0.750
  555SOL    HW2 1682   1.098   2.892   0.653
  556SOL     OW 1683   1.014   2.098   0.971
  556SOL    HW1 1684   1.006   2.062   0.878
  556SOL    HW2 1685   1.012   2.022   1.036
  557SOL     OW 1686   0.590   3.349   0.491
  557SOL    HW1 1687   0.632   3.291   0.421
  557SOL    HW2 1688   0.546   3.428   0.447
  558SOL     OW 1689   1.709   2.247   1.381
  558SOL    HW1 1690   1.782   2.316   1.385
  558SOL    HW2 1691   1.737   2.172   1.322
  559SOL     OW 1692   0.255   3.210   0.290
  559SOL    HW1 1693   0.159   3.211   0.263
  559SOL    HW2 1694   0.267   3.263   0.374
  560SOL     OW 1695   0.105   2.875   1.726
  560SOL    HW1 1696   0.028   2.842   1.780
  560SOL    HW2 1697   0.190   2.845   1.768
  561SOL     OW 1698   0.672   2.065   1.489
  561SOL    HW1 1699   0.762   2.049   1.449
  561SOL    HW2 1700   0.680   2.070   1.588
  562SOL     OW 1701   0.075   2.207   0.033
  562SOL    HW1 1702  -0.017   2.179   0.004
  562SOL    HW2 1703   0.106   2.284  -0.023
  563SOL     OW 1704   1.440   2.718   1.398
  563SOL    HW1 1705   1.383   2.770   1.335
  563SOL    HW2 1706   1.536   2.730   1.374
  564SOL     OW 1707   0.072   2.028   0.318
  564SOL    HW1 1708   0.055   2.111   0.264
  564SOL    HW2 1709   0.162   1.991   0.296
  565SOL     OW 1710   1.183   3.197   0.119
  565SOL    HW1 1711   1.084   3.186   0.121
  565SOL    HW2 1712   1.217   3.212   0.212
  566SOL     OW 1713   0.613   2.704   1.431
  566SOL    HW1 1714   0.669   2.785   1.414
  566SOL    HW2 1715   0.672   2.624   1.434
  567SOL     OW 1716   0.716   2.427   1.708
  567SOL    HW1 1717   0.735   2.492   1.782
  567SOL    HW2 1718   0.776   2.347   1.717
  568SOL     OW 1719   1.450   3.082   1.633
  568SOL    HW1 1720   1.441   3.072   1.732
  568SOL    HW2 1721   1.546   3.075   1.607
  569SOL     OW 1722   1.674   2.745   1.254
  569SOL    HW1 1723   1.647   2.656   1.217
  569SOL    HW2 1724   1.675   2.813   1.181
  570SOL     OW 1725   1.225   2.187   0.449
  570SOL    HW1 1726   1.290   2.113   0.438
  570SOL    HW2 1727   1.245   2.237   0.533
  571SOL     OW 1728   0.594   2.607   0.652
  571SOL    HW1 1729   0.644   2.692   0.633
  571SOL    HW2 1730   0.506   2.609   0.604
  572SOL     OW 1731   1.777   2.204   1.642
  572SOL    HW1 1732   1.760   2.235   1.548
  572SOL    HW2 1733   1.693   2.167   1.680
  573SOL     OW 1734   1.730   2.796   1.517
  573SOL    HW1 1735   1.768   2.887   1.532
  573SOL    HW2 1736   1.722   2.779   1.418
  574SOL     OW 1737   0.859   3.236   0.016
  574SOL    HW1 1738   0.813   3.251   0.104
  574SOL    HW2 1739   0.903   3.321  -0.014
  575SOL     OW 1740   0.859   2.818   0.861
  575SOL    HW1 1741   0.913   2.749   0.909
  575SOL    HW2 1742   0.827   2.887   0.927
  576SOL     OW 1743   1.083   2.846   0.087
  576SOL    HW1 1744   1.060   2.899   0.005
  576SOL    HW2 1745   1.164   2.790   0.068
  577SOL     OW 1746   1.861   3.431   0.851
  577SOL    HW1 1747   1.790   3.419   0.781
  577SOL    HW2 1748   1.862   3.352   0.911
  578SOL     OW 1749   0.221   3.176   1.844
  578SOL    HW1 1750   0.156   3.103   1.823
  578SOL    HW2 1751   0.225   3.190   1.942
  579SOL     OW 1752   0.079   3.102   0.653
  579SOL    HW1 1753   0.078   3.055   0.741
  579SOL    HW2 1754   0.161   3.074   0.602
  580SOL     OW 1755   0.672   3.253   1.624
  580SOL    HW1 1756   0.594   3.203   1.662
  580SOL    HW2 1757   0.669   3.348   1.655
  581SOL     OW 1758   1.824   2.054   1.227
  581SOL    HW1 1759   1.820   1.964   1.271
  581SOL    HW2 1760   1.827   2.043   1.128
  582SOL     OW 1761   0.428   2.286   0.520
  582SOL    HW1 1762   0.458   2.214   0.458
  582SOL    HW2 1763   0.389   2.246   0.603
  583SOL     OW 1764   1.705   3.349   1.104
  583SOL    HW1 1765   1.612   3.324   1.077
  583SOL    HW2 1766   1.731   3.299   1.186
  584SOL     OW 1767   0.317   2.409   1.280
  584SOL    HW1 1768   0.355   2.350   1.352
  584SOL    HW2 1769   0.357   2.383   1.192
  585SOL     OW 1770   0.812   3.448   0.687
  585SOL    HW1 1771   0.844   3.458   0.593
  585SOL    HW2 1772   0.733   3.386   0.689
  586SOL     OW 1773   1.424   2.076   1.112
  586SOL    HW1 1774   1.476   2.011   1.167
  586SOL    HW2 1775   1.375   2.139   1.173
  587SOL     OW 1776   1.001   1.896   1.154
  587SOL    HW1 1777   0.938   1.824   1.123
  587SOL    HW2 1778   1.094   1.860   1.154
  588SOL     OW 1779   0.770   3.192   0.301
  588SOL    HW1 1780   0.724   3.105   0.318
  588SOL    HW2 1781   0.861   3.189   0.342
  589SOL     OW 1782   0.618   3.429   1.284
  589SOL    HW1 1783   0.613   3.511   1.341
  589SOL    HW2 1784   0.707   3.426   1.239
  590SOL     OW 1785   1.352   1.914   0.168
  590SOL    HW1 1786   1.387   1.873   0.084
  590SOL    HW2 1787   1.262   1.876   0.188
  591SOL     OW 1788   1.300   2.315   0.691
  591SOL    HW1 1789   1.241   2.395   0.695
  591SOL    HW2 1790   1.315   2.280   0.784
  592SOL     OW 1791   1.593   2.083   0.882
  592SOL    HW1 1792   1.509   2.082   0.936
  592SOL    HW2 1793   1.595   2.166   0.826
  593SOL     OW 1794   0.039   2.939   0.300
  593SOL    HW1 1795   0.138   2.928   0.291
  593SOL    HW2 1796  -0.001   2.853   0.332
  594SOL     OW 1797   0.230   2.490   1.975
  594SOL    HW1 1798   0.137   2.488   2.012
  594SOL    HW2 1799   0.231   2.451   1.883
  595SOL     OW 1800   0.225   2.137   2.858
  595SOL    HW1 1801   0.260   2.120   2.950
  595SOL    HW2 1802   0.137   2.092   2.846
  596SOL     OW 1803   0.019   2.230   2.509
  596SOL    HW1 1804  -0.063   2.273   2.548
  596SOL    HW2 1805  -0.009   2.157   2.446
  597SOL     OW 1806   0.569   3.137   3.027
  597SOL    HW1 1807   0.476   3.130   2.990
  597SOL    HW2 1808   0.580   3.226   3.071
  598SOL     OW 1809   1.555   3.373   2.565
  598SOL    HW1 1810   1.498   3.357   2.646
  598SOL    HW2 1811   1.496   3.383   2.485
  599SOL     OW 1812   1.135   2.565   2.579
  599SOL    HW1 1813   1.192   2.643   2.554
  599SOL    HW2 1814   1.075   2.591   2.655
  600SOL     OW 1815   1.755   2.469   2.093
  600SOL    HW1 1816   1.743   2.456   1.994
  600SOL    HW2 1817   1.725   2.388   2.142
  601SOL     OW 1818   0.768   3.006   2.885
  601SOL    HW1 1819   0.690   3.023   2.945
  601SOL    HW2 1820   0.802   3.093   2.849
  602SOL     OW 1821   0.685   2.874   2.527
  602SOL    HW1 1822   0.754   2.858   2.597
  602SOL    HW2 1823   0.612   2.931   2.565
  603SOL     OW 1824   0.335   3.297   2.923
  603SOL    HW1 1825   0.257   3.266   2.870
  603SOL    HW2 1826   0.393   3.355   2.866
  604SOL     OW 1827   1.460   3.367   3.201
  604SOL    HW1 1828   1.484   3.461   3.227
  604SOL    HW2 1829   1.444   3.313   3.283
  605SOL     OW 1830   0.438   2.254   3.361
  605SOL    HW1 1831   0.520   2.198   3.370
  605SOL    HW2 1832   0.357   2.196   3.365
  606SOL     OW 1833   1.603   2.309   2.599
  606SOL    HW1 1834   1.529   2.355   2.549
  606SOL    HW2 1835   1.654   2.377   2.652
  607SOL     OW 1836   0.230   3.296   2.400
  607SOL    HW1 1837   0.204   3.392   2.400
  607SOL    HW2 1838   0.159   3.242   2.445
  608SOL     OW 1839   0.240   2.953   2.748
  608SOL    HW1 1840   0.254   2.869   2.800
  608SOL    HW2 1841   0.185   3.017   2.803
  609SOL     OW 1842   0.606   2.826   1.985
  609SOL    HW1 1843   0.613   2.910   1.931
  609SOL    HW2 1844   0.652   2.839   2.073
  610SOL     OW 1845   1.594   1.976   3.342
  610SOL    HW1 1846   1.576   2.043   3.270
  610SOL    HW2 1847   1.591   2.022   3.431
  611SOL     OW 1848   0.122   2.505   2.425
  611SOL    HW1 1849   0.077   2.417   2.442
  611SOL    HW2 1850   0.121   2.559   2.509
  612SOL     OW 1851   0.027   3.458   1.979
  612SOL    HW1 1852   0.008   3.362   2.000
  612SOL    HW2 1853  -0.006   3.516   2.054
  613SOL     OW 1854   1.689   2.784   2.474
  613SOL    HW1 1855   1.784   2.755   2.482
  613SOL    HW2 1856   1.681   2.849   2.399
  614SOL     OW 1857   1.641   2.970   2.294
  614SOL    HW1 1858   1.727   2.972   2.242
  614SOL    HW2 1859   1.655   3.017   2.382
  615SOL     OW 1860   0.113   2.599   3.459
  615SOL    HW1 1861   0.201   2.586   3.504
  615SOL    HW2 1862   0.100   2.696   3.437
  616SOL     OW 1863   0.613   3.227   2.588
  616SOL    HW1 1864   0.564   3.140   2.597
  616SOL    HW2 1865   0.590   3.270   2.501
  617SOL     OW 1866   1.293   3.090   3.285
  617SOL    HW1 1867   1.330   3.017   3.227
  617SOL    HW2 1868   1.345   3.095   3.370
  618SOL     OW 1869   0.809   1.866   2.364
  618SOL    HW1 1870   0.849   1.957   2.355
  618SOL    HW2 1871   0.709   1.874   2.370
  619SOL     OW 1872   0.197   2.838   3.126
  619SOL    HW1 1873   0.286   2.793   3.112
  619SOL    HW2 1874   0.124   2.773   3.107
  620SOL     OW 1875   1.525   2.861   2.052
  620SOL    HW1 1876   1.462   2.785   2.065
  620SOL    HW2 1877   1.573   2.879   2.138
  621SOL     OW 1878   1.466   3.279   2.815
  621SOL    HW1 1879   1.407   3.285   2.895
  621SOL    HW2 1880   1.451   3.191   2.769
  622SOL     OW 1881   0.598   2.591   2.132
  622SOL    HW1 1882   0.622   2.660   2.064
  622SOL    HW2 1883   0.520   2.624   2.186
  623SOL     OW 1884   1.281   2.207   2.806
  623SOL    HW1 1885   1.195   2.157   2.793
  623SOL    HW2 1886   1.343   2.153   2.862
  624SOL     OW 1887   1.576   3.524   2.169
  624SOL    HW1 1888   1.665   3.570   2.172
  624SOL    HW2 1889   1.555   3.500   2.074
  625SOL     OW 1890   0.807   2.467   3.327
  625SOL    HW1 1891   0.760   2.464   3.416
  625SOL    HW2 1892   0.756   2.412   3.261
  626SOL     OW 1893   0.973   2.752   3.434
  626SOL    HW1 1894   1.019   2.668   3.405
  626SOL    HW2 1895   0.917   2.786   3.359
  627SOL     OW 1896   0.991   2.272   3.104
  627SOL    HW1 1897   0.914   2.306   3.158
  627SOL    HW2 1898   0.957   2.221   3.025
  628SOL     OW 1899   1.041   2.563   2.291
  628SOL    HW1 1900   1.067   2.559   2.387
  628SOL    HW2 1901   0.956   2.512   2.277
  629SOL     OW 1902   0.076   2.673   2.651
  629SOL    HW1 1903   0.175   2.661   2.660
  629SOL    HW2 1904   0.052   2.768   2.672
  630SOL     OW 1905   0.865   2.210   2.057
  630SOL    HW1 1906   0.924   2.273   2.008
  630SOL    HW2 1907   0.884   2.116   2.028
  631SOL     OW 1908   1.362   3.006   2.407
  631SOL    HW1 1909   1.445   2.977   2.359
  631SOL    HW2 1910   1.313   3.073   2.351
  632SOL     OW 1911   0.550   2.058   2.747
  632SOL    HW1 1912   0.545   2.053   2.847
  632SOL    HW2 1913   0.552   2.154   2.718
  633SOL     OW 1914   1.008   3.318   2.339
  633SOL    HW1 1915   0.962   3.390   2.287
  633SOL    HW2 1916   1.004   3.338   2.437
  634SOL     OW 1917   1.795   2.928   2.735
  634SOL    HW1 1918   1.733   2.913   2.659
  634SOL    HW2 1919   1.743   2.939   2.820
  635SOL     OW 1920   1.227   3.412   3.368
  635SOL    HW1 1921   1.233   3.335   3.432
  635SOL    HW2 1922   1.175   3.386   3.288
  636SOL     OW 1923   0.321   2.805   2.104
  636SOL    HW1 1924   0.403   2.844   2.062
  636SOL    HW2 1925   0.294   2.723   2.055
  637SOL     OW 1926   1.458   2.597   2.590
  637SOL    HW1 1927   1.453   2.532   2.665
  637SOL    HW2 1928   1.538   2.656   2.603
  638SOL     OW 1929   0.461   3.128   3.589
  638SOL    HW1 1930   0.411   3.129   3.503
  638SOL    HW2 1931   0.398   3.110   3.665
  639SOL     OW 1932   0.202   2.147   3.360
  639SOL    HW1 1933   0.122   2.207   3.347
  639SOL    HW2 1934   0.192   2.098   3.446
  640SOL     OW 1935   1.632   3.239   1.943
  640SOL    HW1 1936   1.600   3.333   1.933
  640SOL    HW2 1937   1.556   3.176   1.931
  641SOL     OW 1938   1.400   1.969   2.288
  641SOL    HW1 1939   1.376   1.932   2.198
  641SOL    HW2 1940   1.499   1.985   2.292
  642SOL     OW 1941   0.382   2.562   2.342
  642SOL    HW1 1942   0.427   2.472   2.339
  642SOL    HW2 1943   0.288   2.551   2.375
  643SOL     OW 1944   0.614   1.984   1.979
  643SOL    HW1 1945   0.712   1.962   1.986
  643SOL    HW2 1946   0.583   1.967   1.886
  644SOL     OW 1947   0.888   3.376   3.057
  644SOL    HW1 1948   0.865   3.351   2.963
  644SOL    HW2 1949   0.949   3.307   3.096
  645SOL     OW 1950   1.351   2.452   3.295
  645SOL    HW1 1951   1.379   2.409   3.380
  645SOL    HW2 1952   1.376   2.548   3.296
  646SOL     OW 1953   0.803   3.264   2.786
  646SOL    HW1 1954   0.893   3.278   2.744
  646SOL    HW2 1955   0.732   3.266   2.715
  647SOL     OW 1956   0.922   2.365   2.761
  647SOL    HW1 1957   0.897   2.356   2.665
  647SOL    HW2 1958   0.970   2.283   2.792
  648SOL     OW 1959   0.539   1.926   2.374
  648SOL    HW1 1960   0.458   1.927   2.432
  648SOL    HW2 1961   0.542   2.009   2.319
  649SOL     OW 1962   1.434   3.050   1.903
  649SOL    HW1 1963   1.466   2.974   1.960
  649SOL    HW2 1964   1.342   3.077   1.933
  650SOL     OW 1965   0.297   1.897   2.033
  650SOL    HW1 1966   0.346   1.981   2.012
  650SOL    HW2 1967   0.359   1.832   2.078
  651SOL     OW 1968   0.935   2.098   2.342
  651SOL    HW1 1969   0.887   2.139   2.264
  651SOL    HW2 1970   1.034   2.096   2.323
  652SOL     OW 1971   1.076   2.545   3.326
  652SOL    HW1 1972   0.996   2.484   3.329
  652SOL    HW2 1973   1.157   2.492   3.302
  653SOL     OW 1974   1.227   3.432   2.655
  653SOL    HW1 1975   1.248   3.506   2.590
  653SOL    HW2 1976   1.295   3.432   2.728
  654SOL     OW 1977   0.459   3.014   2.603
  654SOL    HW1 1978   0.388   2.987   2.668
  654SOL    HW2 1979   0.433   2.986   2.510
  655SOL     OW 1980   1.032   2.411   1.878
  655SOL    HW1 1981   0.991   2.493   1.839
  655SOL    HW2 1982   1.096   2.437   1.951
  656SOL     OW 1983   0.078   2.418   3.248
  656SOL    HW1 1984   0.170   2.417   3.207
  656SOL    HW2 1985   0.072   2.492   3.315
  657SOL     OW 1986   0.561   2.084   3.009
  657SOL    HW1 1987   0.599   2.000   3.046
  657SOL    HW2 1988   0.473   2.103   3.053
  658SOL     OW 1989   0.866   2.316   2.504
  658SOL    HW1 1990   0.834   2.388   2.442
  658SOL    HW2 1991   0.890   2.235   2.451
  659SOL     OW 1992   1.017   1.901   2.615
  659SOL    HW1 1993   0.945   1.906   2.546
  659SOL    HW2 1994   0.993   1.832   2.684
  660SOL     OW 1995   1.429   3.035   2.729
  660SOL    HW1 1996   1.374   2.951   2.722
  660SOL    HW2 1997   1.455   3.064   2.637
  661SOL     OW 1998   1.466   2.452   2.854
  661SOL    HW1 1999   1.436   2.357   2.861
  661SOL    HW2 2000   1.539   2.468   2.920
  662SOL     OW 2001   1.857   2.695   2.239
  662SOL    HW1 2002   1.899   2.631   2.303
  662SOL    HW2 2003   1.819   2.644   2.161
  663SOL     OW 2004   0.488   3.247   2.036
  663SOL    HW1 2005   0.401   3.232   2.083
  663SOL    HW2 2006   0.471   3.273   1.941
  664SOL     OW 2007   1.664   3.142   2.519
  664SOL    HW1 2008   1.763   3.150   2.533
  664SOL    HW2 2009   1.619   3.226   2.550
  665SOL     OW 2010   1.390   2.437   1.940
  665SOL    HW1 2011   1.336   2.416   2.021
  665SOL    HW2 2012   1.481   2.396   1.949
  666SOL     OW 2013   0.527   2.118   2.190
  666SOL    HW1 2014   0.554   2.059   2.115
  666SOL    HW2 2015   0.527   2.213   2.159
  667SOL     OW 2016   1.754   3.085   3.450
  667SOL    HW1 2017   1.845   3.046   3.437
  667SOL    HW2 2018   1.762   3.181   3.474
  668SOL     OW 2019   1.064   3.209   3.202
  668SOL    HW1 2020   0.984   3.186   3.257
  668SOL    HW2 2021   1.147   3.183   3.251
  669SOL     OW 2022   1.592   3.491   3.487
  669SOL    HW1 2023   1.619   3.525   3.397
  669SOL    HW2 2024   1.671   3.453   3.533
  670SOL     OW 2025   1.111   3.057   2.962
  670SOL    HW1 2026   1.071   3.101   3.043
  670SOL    HW2 2027   1.070   3.094   2.879
  671SOL     OW 2028   1.638   2.961   2.941
  671SOL    HW1 2029   1.643   3.042   3.000
  671SOL    HW2 2030   1.552   2.963   2.890
  672SOL     OW 2031   0.915   1.951   3.264
  672SOL    HW1 2032   0.940   1.931   3.169
  672SOL    HW2 2033   0.987   2.007   3.306
  673SOL     OW 2034   0.705   2.912   2.230
  673SOL    HW1 2035   0.691   2.919   2.329
  673SOL    HW2 2036   0.789   2.861   2.212
  674SOL     OW 2037   0.410   2.675   3.113
  674SOL    HW1 2038   0.496   2.687   3.163
  674SOL    HW2 2039   0.368   2.588   3.140
  675SOL     OW 2040   1.274   2.248   3.124
  675SOL    HW1 2041   1.295   2.322   3.188
  675SOL    HW2 2042   1.185   2.265   3.081
  676SOL     OW 2043   0.064   3.426   3.193
  676SOL    HW1 2044   0.018   3.508   3.159
  676SOL    HW2 2045   0.162   3.445   3.202
  677SOL     OW 2046   0.367   2.962   2.363
  677SOL    HW1 2047   0.360   3.045   2.307
  677SOL    HW2 2048   0.371   2.882   2.303
  678SOL     OW 2049   0.566   2.399   2.727
  678SOL    HW1 2050   0.578   2.465   2.653
  678SOL    HW2 2051   0.612   2.433   2.810
  679SOL     OW 2052   1.252   3.210   2.250
  679SOL    HW1 2053   1.302   3.287   2.290
  679SOL    HW2 2054   1.157   3.212   2.282
  680SOL     OW 2055   1.272   3.307   3.004
  680SOL    HW1 2056   1.319   3.320   3.091
  680SOL    HW2 2057   1.206   3.233   3.013
  681SOL     OW 2058   1.582   2.501   2.334
  681SOL    HW1 2059   1.551   2.562   2.407
  681SOL    HW2 2060   1.632   2.553   2.265
  682SOL     OW 2061   0.354   3.372   3.191
  682SOL    HW1 2062   0.333   3.328   3.104
  682SOL    HW2 2063   0.451   3.398   3.194
  683SOL     OW 2064   0.402   2.613   3.460
  683SOL    HW1 2065   0.470   2.668   3.413
  683SOL    HW2 2066   0.442   2.525   3.487
  684SOL     OW 2067   1.587   2.641   3.532
  684SOL    HW1 2068   1.495   2.679   3.527
  684SOL    HW2 2069   1.647   2.688   3.467
  685SOL     OW 2070   0.573   2.732   2.891
  685SOL    HW1 2071   0.617   2.821   2.882
  685SOL    HW2 2072   0.510   2.732   2.968
  686SOL     OW 2073   1.360   2.724   2.907
  686SOL    HW1 2074   1.285   2.724   2.841
  686SOL    HW2 2075   1.397   2.632   2.916
  687SOL     OW 2076   1.209   2.387   2.137
  687SOL    HW1 2077   1.222   2.303   2.191
  687SOL    HW2 2078   1.180   2.461   2.197
  688SOL     OW 2079   0.307   2.075   3.093
  688SOL    HW1 2080   0.284   2.112   3.183
  688SOL    HW2 2081   0.277   1.980   3.087
  689SOL     OW 2082   0.037   3.172   3.144
  689SOL    HW1 2083   0.090   3.123   3.212
  689SOL    HW2 2084   0.059   3.270   3.149
  690SOL     OW 2085   0.732   2.496   2.926
  690SOL    HW1 2086   0.791   2.470   2.850
  690SOL    HW2 2087   0.704   2.592   2.915
  691SOL     OW 2088   0.307   1.925   2.480
  691SOL    HW1 2089   0.296   2.019   2.513
  691SOL    HW2 2090   0.302   1.862   2.557
  692SOL     OW 2091   1.622   2.229   2.236
  692SOL    HW1 2092   1.624   2.153   2.300
  692SOL    HW2 2093   1.574   2.306   2.276
  693SOL     OW 2094   1.023   2.628   2.828
  693SOL    HW1 2095   1.038   2.649   2.924
  693SOL    HW2 2096   0.993   2.533   2.819
  694SOL     OW 2097   1.859   3.380   3.467
  694SOL    HW1 2098   1.873   3.407   3.372
  694SOL    HW2 2099   1.942   3.402   3.520
  695SOL     OW 2100   1.540   2.136   1.987
  695SOL    HW1 2101   1.479   2.061   2.010
  695SOL    HW2 2102   1.562   2.188   2.070
  696SOL     OW 2103   1.303   2.700   1.904
  696SOL    HW1 2104   1.337   2.607   1.919
  696SOL    HW2 2105   1.321   2.727   1.809
  697SOL     OW 2106   1.068   3.195   2.711
  697SOL    HW1 2107   1.075   3.111   2.656
  697SOL    HW2 2108   1.130   3.264   2.675
  698SOL     OW 2109   0.319   2.672   2.811
  698SOL    HW1 2110   0.412   2.708   2.816
  698SOL    HW2 2111   0.313   2.587   2.863
  699SOL     OW 2112   0.339   2.371   2.868
  699SOL    HW1 2113   0.287   2.288   2.851
  699SOL    HW2 2114   0.416   2.376   2.804
  700SOL     OW 2115   1.160   2.069   3.339
  700SOL    HW1 2116   1.160   2.133   3.416
  700SOL    HW2 2117   1.188   2.117   3.256
  701SOL     OW 2118   0.008   3.188   2.062
  701SOL    HW1 2119  -0.085   3.209   2.031
  701SOL    HW2 2120   0.018   3.089   2.075
  702SOL     OW 2121   0.088   3.663   2.789
  702SOL    HW1 2122   0.046   3.577   2.762
  702SOL    HW2 2123   0.182   3.666   2.755
  703SOL     OW 2124   0.504   3.430   2.772
  703SOL    HW1 2125   0.570   3.504   2.781
  703SOL    HW2 2126   0.548   3.351   2.730
  704SOL     OW 2127   1.002   2.658   3.100
  704SOL    HW1 2128   1.043   2.626   3.186
  704SOL    HW2 2129   0.906   2.631   3.097
  705SOL     OW 2130   0.040   2.406   2.976
  705SOL    HW1 2131   0.125   2.373   2.935
  705SOL    HW2 2132   0.053   2.421   3.074
  706SOL     OW 2133   0.815   2.434   2.187
  706SOL    HW1 2134   0.822   2.345   2.141
  706SOL    HW2 2135   0.721   2.468   2.179
  707SOL     OW 2136   1.657   2.466   3.068
  707SOL    HW1 2137   1.619   2.397   3.130
  707SOL    HW2 2138   1.739   2.430   3.024
  708SOL     OW 2139   0.252   3.426   3.606
  708SOL    HW1 2140   0.222   3.483   3.682
  708SOL    HW2 2141   0.245   3.329   3.632
  709SOL     OW 2142   0.671   2.326   3.131
  709SOL    HW1 2143   0.637   2.237   3.101
  709SOL    HW2 2144   0.697   2.380   3.051
  710SOL     OW 2145   0.473   2.362   2.053
  710SOL    HW1 2146   0.534   2.442   2.057
  710SOL    HW2 2147   0.378   2.393   2.060
  711SOL     OW 2148   0.159   2.999   3.328
  711SOL    HW1 2149   0.181   2.938   3.404
  711SOL    HW2 2150   0.169   2.950   3.242
  712SOL     OW 2151   1.347   2.921   3.096
  712SOL    HW1 2152   1.371   2.858   3.022
  712SOL    HW2 2153   1.257   2.961   3.078
  713SOL     OW 2154   1.302   2.717   2.171
  713SOL    HW1 2155   1.216   2.686   2.213
  713SOL    HW2 2156   1.298   2.703   2.072
  714SOL     OW 2157   1.252   3.593   2.990
  714SOL    HW1 2158   1.336   3.598   2.936
  714SOL    HW2 2159   1.229   3.497   3.008
  715SOL     OW 2160   0.083   3.120   2.884
  715SOL    HW1 2161   0.078   3.119   2.984
  715SOL    HW2 2162   0.000   3.079   2.846
  716SOL     OW 2163   1.726   1.997   2.385
  716SOL    HW1 2164   1.799   1.980   2.318
  716SOL    HW2 2165   1.695   1.910   2.423
  717SOL     OW 2166   1.388   3.435   2.339
  717SOL    HW1 2167   1.455   3.447   2.265
  717SOL    HW2 2168   1.348   3.524   2.362
  718SOL     OW 2169   1.280   2.789   2.534
  718SOL    HW1 2170   1.340   2.708   2.536
  718SOL    HW2 2171   1.320   2.858   2.474
  719SOL     OW 2172   0.830   3.135   3.284
  719SOL    HW1 2173   0.825   3.168   3.379
  719SOL    HW2 2174   0.744   3.154   3.238
  720SOL     OW 2175   0.672   3.478   2.016
  720SOL    HW1 2176   0.681   3.488   1.917
  720SOL    HW2 2177   0.632   3.389   2.037
  721SOL     OW 2178   1.841   2.037   2.825
  721SOL    HW1 2179   1.880   1.952   2.789
  721SOL    HW2 2180   1.743   2.039   2.806
  722SOL     OW 2181   0.263   2.188   2.582
  722SOL    HW1 2182   0.184   2.239   2.548
  722SOL    HW2 2183   0.254   2.173   2.680
  723SOL     OW 2184   1.194   3.474   1.893
  723SOL    HW1 2185   1.200   3.381   1.930
  723SOL    HW2 2186   1.135   3.474   1.813
  724SOL     OW 2187   0.822   2.864   3.234
  724SOL    HW1 2188   0.862   2.863   3.142
  724SOL    HW2 2189   0.832   2.956   3.274
  725SOL     OW 2190   0.916   2.772   2.153
  725SOL    HW1 2191   0.979   2.810   2.085
  725SOL    HW2 2192   0.956   2.689   2.192
  726SOL     OW 2193   0.372   3.150   3.352
  726SOL    HW1 2194   0.359   3.243   3.318
  726SOL    HW2 2195   0.288   3.098   3.339
  727SOL     OW 2196   1.614   3.154   3.151
  727SOL    HW1 2197   1.674   3.157   3.231
  727SOL    HW2 2198   1.539   3.218   3.164
  728SOL     OW 2199   1.039   2.960   2.558
  728SOL    HW1 2200   0.969   2.913   2.612
  728SOL    HW2 2201   1.098   2.892   2.515
  729SOL     OW 2202   1.014   2.098   2.833
  729SOL    HW1 2203   1.006   2.062   2.740
  729SOL    HW2 2204   1.012   2.022   2.898
  730SOL     OW 2205   0.590   3.349   2.353
  730SOL    HW1 2206   0.632   3.291   2.283
  730SOL    HW2 2207   0.546   3.428   2.309
  731SOL     OW 2208   1.709   2.247   3.243
  731SOL    HW1 2209   1.782   2.316   3.247
  731SOL    HW2 2210   1.737   2.172   3.184
  732SOL     OW 2211   0.255   3.210   2.152
  732SOL    HW1 2212   0.159   3.211   2.125
  732SOL    HW2 2213   0.267   3.263   2.236
  733SOL     OW 2214   0.105   2.875   3.588
  733SOL    HW1 2215   0.028   2.842   3.642
  733SOL    HW2 2216   0.190   2.845   3.630
  734SOL     OW 2217   0.672   2.065   3.351
  734SOL    HW1 2218   0.762   2.049   3.311
  734SOL    HW2 2219   0.680   2.070   3.450
  735SOL     OW 2220   0.075   2.207   1.895
  735SOL    HW1 2221  -0.017   2.179   1.866
  735SOL    HW2 2222   0.106   2.284   1.839
  736SOL     OW 2223   1.440   2.718   3.260
  736SOL    HW1 2224   1.383   2.770   3.197
  736SOL    HW2 2225   1.536   2.730   3.236
  737SOL     OW 2226   0.072   2.028   2.180
  737SOL    HW1 2227   0.055   2.111   2.126
  737SOL    HW2 2228   0.162   1.991   2.158
  738SOL     OW 2229   1.183   3.197   1.981
  738SOL    HW1 2230   1.084   3.186   1.983
  738SOL    HW2 2231   1.217   3.212   2.074
  739SOL     OW 2232   0.613   2.704   3.293
  739SOL    HW1 2233   0.669   2.785   3.276
  739SOL    HW2 2234   0.672   2.624   3.296
  740SOL     OW 2235   0.716   2.427   3.570
  740SOL    HW1 2236   0.735   2.492   3.644
  740SOL    HW2 2237   0.776   2.347   3.579
  741SOL     OW 2238   0.390   3.603   3.422
  741SOL    HW1 2239   0.299   3.644   3.420
  741SOL    HW2 2240   0.383   3.509   3.454
  742SOL     OW 2241   1.674   2.745   3.116
  742SOL    HW1 2242   1.647   2.656   3.079
  742SOL    HW2 2243   1.675   2.813   3.043
  743SOL     OW 2244   1.225   2.187   2.311
  743SOL    HW1 2245   1.290   2.113   2.300
  743SOL    HW2 2246   1.245   2.237   2.395
  744SOL     OW 2247   0.594   2.607   2.514
  744SOL    HW1 2248   0.644   2.692   2.495
  744SOL    HW2 2249   0.506   2.609   2.466
  745SOL     OW 2250   1.730   2.796   3.379
  745SOL    HW1 2251   1.768   2.887   3.394
  745SOL    HW2 2252   1.722   2.779   3.280
  746SOL     OW 2253   0.859   3.236   1.878
  746SOL    HW1 2254   0.813   3.251   1.966
  746SOL    HW2 2255   0.903   3.321   1.848
  747SOL     OW 2256   0.859   2.818   2.723
  747SOL    HW1 2257   0.913   2.749   2.771
  747SOL    HW2 2258   0.827   2.887   2.789
  748SOL     OW 2259   1.083   2.846   1.949
  748SOL    HW1 2260   1.060   2.899   1.867
  748SOL    HW2 2261   1.164   2.790   1.930
  749SOL     OW 2262   1.861   3.431   2.713
  749SOL    HW1 2263   1.790   3.419   2.643
  749SOL    HW2 2264   1.862   3.352   2.773
  750SOL     OW 2265   0.079   3.102   2.515
  750SOL    HW1 2266   0.078   3.055   2.603
  750SOL    HW2 2267   0.161   3.074   2.464
  751SOL     OW 2268   0.672   3.253   3.486
  751SOL    HW1 2269   0.594   3.203   3.524
  751SOL    HW2 2270   0.669   3.348   3.517
  752SOL     OW 2271   1.824   2.054   3.089
  752SOL    HW1 2272   1.820   1.964   3.133
  752SOL    HW2 2273   1.827   2.043   2.990
  753SOL     OW 2274   0.428   2.286   2.382
  753SOL    HW1 2275   0.458   2.214   2.320
  753SOL    HW2 2276   0.389   2.246   2.465
  754SOL     OW 2277   1.705   3.349   2.966
  754SOL    HW1 2278   1.612   3.324   2.939
  754SOL    HW2 2279   1.731   3.299   3.048
  755SOL     OW 2280   0.317   2.409   3.142
  755SOL    HW1 2281   0.355   2.350   3.214
  755SOL    HW2 2282   0.357   2.383   3.054
  756SOL     OW 2283   0.812   3.448   2.549
  756SOL    HW1 2284   0.844   3.458   2.455
  756SOL    HW2 2285   0.733   3.386   2.551
  757SOL     OW 2286   1.424   2.076   2.974
  757SOL    HW1 2287   1.476   2.011   3.029
  757SOL    HW2 2288   1.375   2.139   3.035
  758SOL     OW 2289   1.001   1.896   3.016
  758SOL    HW1 2290   0.938   1.824   2.985
  758SOL    HW2 2291   1.094   1.860   3.016
  759SOL     OW 2292   0.770   3.192   2.163
  759SOL    HW1 2293   0.724   3.105   2.180
  759SOL    HW2 2294   0.861   3.189   2.204
  760SOL     OW 2295   0.618   3.429   3.146
  760SOL    HW1 2296   0.613   3.511   3.203
  760SOL    HW2 2297   0.707   3.426   3.101
  761SOL     OW 2298   1.352   1.914   2.030
  761SOL    HW1 2299   1.387   1.873   1.946
  761SOL    HW2 2300   1.262   1.876   2.050
  762SOL     OW 2301   1.300   2.315   2.553
  762SOL    HW1 2302   1.241   2.395   2.557
  762SOL    HW2 2303   1.315   2.280   2.646
  763SOL     OW 2304   1.593   2.083   2.744
  763SOL    HW1 2305   1.509   2.082   2.798
  763SOL    HW2 2306   1.595   2.166   2.688
  764SOL     OW 2307   0.039   2.939   2.162
  764SOL    HW1 2308   0.138   2.928   2.153
  764SOL    HW2 2309  -0.001   2.853   2.194
  765SOL     OW 2310   2.092   0.628   0.113
  765SOL    HW1 2311   1.999   0.626   0.150
  765SOL    HW2 2312   2.093   0.589   0.021
  766SOL     OW 2313   2.087   0.275   0.996
  766SOL    HW1 2314   2.122   0.258   1.088
  766SOL    HW2 2315   1.999   0.230   0.984
  767SOL     OW 2316   1.881   0.368   0.647
  767SOL    HW1 2317   1.799   0.411   0.686
  767SOL    HW2 2318   1.853   0.295   0.584
  768SOL     OW 2319   2.431   1.275   1.165
  768SOL    HW1 2320   2.338   1.268   1.128
  768SOL    HW2 2321   2.442   1.364   1.209
  769SOL     OW 2322   3.417   1.511   0.703
  769SOL    HW1 2323   3.360   1.495   0.784
  769SOL    HW2 2324   3.358   1.521   0.623
  770SOL     OW 2325   2.997   0.703   0.717
  770SOL    HW1 2326   3.054   0.781   0.692
  770SOL    HW2 2327   2.937   0.729   0.793
  771SOL     OW 2328   2.630   1.144   1.023
  771SOL    HW1 2329   2.552   1.161   1.083
  771SOL    HW2 2330   2.664   1.231   0.987
  772SOL     OW 2331   2.712   0.798   1.823
  772SOL    HW1 2332   2.708   0.874   1.888
  772SOL    HW2 2333   2.734   0.834   1.732
  773SOL     OW 2334   2.547   1.012   0.665
  773SOL    HW1 2335   2.616   0.996   0.735
  773SOL    HW2 2336   2.474   1.069   0.703
  774SOL     OW 2337   2.548   1.161   1.803
  774SOL    HW1 2338   2.608   1.240   1.817
  774SOL    HW2 2339   2.462   1.192   1.762
  775SOL     OW 2340   2.197   1.435   1.061
  775SOL    HW1 2341   2.119   1.404   1.008
  775SOL    HW2 2342   2.255   1.493   1.004
  776SOL     OW 2343   3.322   1.505   1.339
  776SOL    HW1 2344   3.346   1.599   1.365
  776SOL    HW2 2345   3.306   1.451   1.421
  777SOL     OW 2346   2.300   0.392   1.499
  777SOL    HW1 2347   2.382   0.336   1.508
  777SOL    HW2 2348   2.219   0.334   1.503
  778SOL     OW 2349   2.093   1.713   0.483
  778SOL    HW1 2350   2.127   1.790   0.537
  778SOL    HW2 2351   2.137   1.713   0.393
  779SOL     OW 2352   2.989   1.341   1.690
  779SOL    HW1 2353   3.036   1.341   1.778
  779SOL    HW2 2354   2.941   1.254   1.679
  780SOL     OW 2355   2.092   1.434   0.538
  780SOL    HW1 2356   2.066   1.530   0.538
  780SOL    HW2 2357   2.021   1.380   0.583
  781SOL     OW 2358   2.102   1.091   0.886
  781SOL    HW1 2359   2.116   1.007   0.938
  781SOL    HW2 2360   2.047   1.155   0.941
  782SOL     OW 2361   2.482   1.786   1.439
  782SOL    HW1 2362   2.390   1.769   1.474
  782SOL    HW2 2363   2.510   1.878   1.465
  783SOL     OW 2364   2.468   0.964   0.123
  783SOL    HW1 2365   2.475   1.048   0.069
  783SOL    HW2 2366   2.514   0.977   0.211
  784SOL     OW 2367   3.456   0.114   1.480
  784SOL    HW1 2368   3.438   0.181   1.408
  784SOL    HW2 2369   3.453   0.160   1.569
  785SOL     OW 2370   1.984   0.643   0.563
  785SOL    HW1 2371   1.939   0.555   0.580
  785SOL    HW2 2372   1.983   0.697   0.647
  786SOL     OW 2373   1.889   1.596   0.117
  786SOL    HW1 2374   1.870   1.500   0.138
  786SOL    HW2 2375   1.856   1.654   0.192
  787SOL     OW 2376   3.551   0.922   0.612
  787SOL    HW1 2377   3.646   0.893   0.620
  787SOL    HW2 2378   3.543   0.987   0.537
  788SOL     OW 2379   1.975   0.737   1.597
  788SOL    HW1 2380   2.063   0.724   1.642
  788SOL    HW2 2381   1.962   0.834   1.575
  789SOL     OW 2382   2.475   1.365   0.726
  789SOL    HW1 2383   2.426   1.278   0.735
  789SOL    HW2 2384   2.452   1.408   0.639
  790SOL     OW 2385   3.155   1.228   1.423
  790SOL    HW1 2386   3.192   1.155   1.365
  790SOL    HW2 2387   3.207   1.233   1.508
  791SOL     OW 2388   2.671   0.004   0.502
  791SOL    HW1 2389   2.711   0.095   0.493
  791SOL    HW2 2390   2.571   0.012   0.508
  792SOL     OW 2391   2.059   0.976   1.264
  792SOL    HW1 2392   2.148   0.931   1.250
  792SOL    HW2 2393   1.986   0.911   1.245
  793SOL     OW 2394   3.387   0.999   0.190
  793SOL    HW1 2395   3.324   0.923   0.203
  793SOL    HW2 2396   3.435   1.017   0.276
  794SOL     OW 2397   3.049   1.792   1.616
  794SOL    HW1 2398   3.073   1.852   1.540
  794SOL    HW2 2399   3.056   1.697   1.586
  795SOL     OW 2400   2.179   0.251   1.801
  795SOL    HW1 2401   2.250   0.322   1.807
  795SOL    HW2 2402   2.091   0.290   1.829
  796SOL     OW 2403   3.328   1.417   0.953
  796SOL    HW1 2404   3.269   1.423   1.033
  796SOL    HW2 2405   3.313   1.329   0.907
  797SOL     OW 2406   3.529   1.714   0.572
  797SOL    HW1 2407   3.488   1.691   0.484
  797SOL    HW2 2408   3.511   1.640   0.637
  798SOL     OW 2409   2.460   0.729   0.270
  798SOL    HW1 2410   2.484   0.798   0.202
  798SOL    HW2 2411   2.382   0.762   0.324
  799SOL     OW 2412   3.143   0.345   0.944
  799SOL    HW1 2413   3.057   0.295   0.931
  799SOL    HW2 2414   3.205   0.291   1.000
  800SOL     OW 2415   3.438   1.662   0.307
  800SOL    HW1 2416   3.527   1.708   0.310
  800SOL    HW2 2417   3.417   1.638   0.212
  801SOL     OW 2418   2.669   0.605   1.465
  801SOL    HW1 2419   2.622   0.602   1.554
  801SOL    HW2 2420   2.618   0.550   1.399
  802SOL     OW 2421   3.256   0.469   1.674
  802SOL    HW1 2422   3.236   0.512   1.762
  802SOL    HW2 2423   3.334   0.407   1.683
  803SOL     OW 2424   2.835   0.890   1.572
  803SOL    HW1 2425   2.881   0.806   1.543
  803SOL    HW2 2426   2.779   0.924   1.497
  804SOL     OW 2427   2.853   0.410   1.242
  804SOL    HW1 2428   2.776   0.444   1.296
  804SOL    HW2 2429   2.819   0.359   1.163
  805SOL     OW 2430   2.903   0.701   0.429
  805SOL    HW1 2431   2.929   0.697   0.525
  805SOL    HW2 2432   2.818   0.650   0.415
  806SOL     OW 2433   1.938   0.811   0.789
  806SOL    HW1 2434   2.037   0.799   0.798
  806SOL    HW2 2435   1.914   0.906   0.810
  807SOL     OW 2436   2.727   0.348   0.195
  807SOL    HW1 2437   2.786   0.411   0.146
  807SOL    HW2 2438   2.746   0.254   0.166
  808SOL     OW 2439   3.581   0.585   1.831
  808SOL    HW1 2440   3.555   0.674   1.795
  808SOL    HW2 2441   3.579   0.517   1.758
  809SOL     OW 2442   3.224   1.144   0.545
  809SOL    HW1 2443   3.307   1.115   0.497
  809SOL    HW2 2444   3.175   1.211   0.489
  810SOL     OW 2445   2.412   0.196   0.885
  810SOL    HW1 2446   2.407   0.191   0.985
  810SOL    HW2 2447   2.414   0.292   0.856
  811SOL     OW 2448   2.870   1.456   0.477
  811SOL    HW1 2449   2.824   1.528   0.425
  811SOL    HW2 2450   2.866   1.476   0.575
  812SOL     OW 2451   2.213   1.801   0.853
  812SOL    HW1 2452   2.263   1.715   0.859
  812SOL    HW2 2453   2.278   1.878   0.850
  813SOL     OW 2454   3.089   1.550   1.506
  813SOL    HW1 2455   3.095   1.473   1.570
  813SOL    HW2 2456   3.037   1.524   1.426
  814SOL     OW 2457   2.183   0.943   0.242
  814SOL    HW1 2458   2.265   0.982   0.200
  814SOL    HW2 2459   2.156   0.861   0.193
  815SOL     OW 2460   3.320   0.735   0.728
  815SOL    HW1 2461   3.315   0.670   0.803
  815SOL    HW2 2462   3.400   0.794   0.741
  816SOL     OW 2463   2.323   1.266   1.727
  816SOL    HW1 2464   2.273   1.267   1.641
  816SOL    HW2 2465   2.260   1.248   1.803
  817SOL     OW 2466   2.973   1.776   0.237
  817SOL    HW1 2467   2.913   1.714   0.287
  817SOL    HW2 2468   3.004   1.732   0.152
  818SOL     OW 2469   2.064   0.285   1.498
  818SOL    HW1 2470   1.984   0.345   1.485
  818SOL    HW2 2471   2.054   0.236   1.584
  819SOL     OW 2472   2.326   1.743   0.323
  819SOL    HW1 2473   2.359   1.782   0.409
  819SOL    HW2 2474   2.402   1.736   0.258
  820SOL     OW 2475   3.262   0.107   0.426
  820SOL    HW1 2476   3.238   0.070   0.336
  820SOL    HW2 2477   3.361   0.123   0.430
  821SOL     OW 2478   2.111   1.785   1.241
  821SOL    HW1 2479   2.168   1.720   1.291
  821SOL    HW2 2480   2.095   1.752   1.148
  822SOL     OW 2481   2.802   1.698   0.904
  822SOL    HW1 2482   2.882   1.641   0.925
  822SOL    HW2 2483   2.753   1.658   0.827
  823SOL     OW 2484   2.244   0.700   0.480
  823SOL    HW1 2485   2.289   0.610   0.477
  823SOL    HW2 2486   2.150   0.689   0.513
  824SOL     OW 2487   3.409   0.222   1.729
  824SOL    HW1 2488   3.404   0.259   1.821
  824SOL    HW2 2489   3.337   0.153   1.717
  825SOL     OW 2490   2.476   0.122   0.117
  825SOL    HW1 2491   2.574   0.100   0.124
  825SOL    HW2 2492   2.445   0.105   0.024
  826SOL     OW 2493   2.643   0.264   1.749
  826SOL    HW1 2494   2.710   0.203   1.792
  826SOL    HW2 2495   2.570   0.283   1.814
  827SOL     OW 2496   2.750   1.514   1.195
  827SOL    HW1 2497   2.727   1.489   1.101
  827SOL    HW2 2498   2.811   1.445   1.234
  828SOL     OW 2499   3.213   0.590   1.433
  828SOL    HW1 2500   3.241   0.547   1.518
  828SOL    HW2 2501   3.238   0.686   1.434
  829SOL     OW 2502   2.665   1.402   0.924
  829SOL    HW1 2503   2.755   1.416   0.882
  829SOL    HW2 2504   2.594   1.404   0.853
  830SOL     OW 2505   2.784   0.503   0.899
  830SOL    HW1 2506   2.759   0.494   0.803
  830SOL    HW2 2507   2.832   0.421   0.930
  831SOL     OW 2508   2.401   0.064   0.512
  831SOL    HW1 2509   2.320   0.065   0.570
  831SOL    HW2 2510   2.404   0.147   0.457
  832SOL     OW 2511   3.296   1.188   0.041
  832SOL    HW1 2512   3.328   1.112   0.098
  832SOL    HW2 2513   3.204   1.215   0.071
  833SOL     OW 2514   2.159   0.035   0.171
  833SOL    HW1 2515   2.208   0.119   0.150
  833SOL    HW2 2516   2.221  -0.030   0.216
  834SOL     OW 2517   2.797   0.236   0.480
  834SOL    HW1 2518   2.749   0.277   0.402
  834SOL    HW2 2519   2.896   0.234   0.461
  835SOL     OW 2520   2.938   0.683   1.464
  835SOL    HW1 2521   2.858   0.622   1.467
  835SOL    HW2 2522   3.019   0.630   1.440
  836SOL     OW 2523   3.089   1.570   0.793
  836SOL    HW1 2524   3.110   1.644   0.728
  836SOL    HW2 2525   3.157   1.570   0.866
  837SOL     OW 2526   2.321   1.152   0.741
  837SOL    HW1 2527   2.250   1.125   0.806
  837SOL    HW2 2528   2.295   1.124   0.648
  838SOL     OW 2529   3.133   1.797   0.591
  838SOL    HW1 2530   3.177   1.861   0.527
  838SOL    HW2 2531   3.083   1.849   0.661
  839SOL     OW 2532   2.894   0.549   0.016
  839SOL    HW1 2533   2.853   0.631  -0.023
  839SOL    HW2 2534   2.958   0.575   0.089
  840SOL     OW 2535   1.940   0.556   1.386
  840SOL    HW1 2536   2.032   0.555   1.345
  840SOL    HW2 2537   1.934   0.630   1.453
  841SOL     OW 2538   2.423   0.222   1.147
  841SOL    HW1 2539   2.461   0.138   1.184
  841SOL    HW2 2540   2.335   0.241   1.191
  842SOL     OW 2541   2.728   0.454   0.642
  842SOL    HW1 2542   2.696   0.526   0.580
  842SOL    HW2 2543   2.752   0.373   0.589
  843SOL     OW 2544   2.879   0.039   0.753
  843SOL    HW1 2545   2.807   0.044   0.684
  843SOL    HW2 2546   2.855  -0.030   0.822
  844SOL     OW 2547   3.291   1.173   0.867
  844SOL    HW1 2548   3.236   1.089   0.860
  844SOL    HW2 2549   3.317   1.202   0.775
  845SOL     OW 2550   3.328   0.590   0.992
  845SOL    HW1 2551   3.298   0.495   0.999
  845SOL    HW2 2552   3.401   0.606   1.058
  846SOL     OW 2553   3.719   0.833   0.377
  846SOL    HW1 2554   3.761   0.769   0.441
  846SOL    HW2 2555   3.681   0.782   0.299
  847SOL     OW 2556   2.350   1.385   0.174
  847SOL    HW1 2557   2.263   1.370   0.221
  847SOL    HW2 2558   2.333   1.411   0.079
  848SOL     OW 2559   3.252   0.575   0.078
  848SOL    HW1 2560   3.198   0.554   0.159
  848SOL    HW2 2561   3.343   0.534   0.087
  849SOL     OW 2562   2.389   0.256   0.328
  849SOL    HW1 2563   2.416   0.197   0.253
  849SOL    HW2 2564   2.389   0.351   0.297
  850SOL     OW 2565   2.926   1.347   1.340
  850SOL    HW1 2566   2.846   1.324   1.395
  850SOL    HW2 2567   3.009   1.321   1.389
  851SOL     OW 2568   3.454   1.629   1.625
  851SOL    HW1 2569   3.481   1.663   1.535
  851SOL    HW2 2570   3.533   1.591   1.671
  852SOL     OW 2571   2.973   1.195   1.100
  852SOL    HW1 2572   2.933   1.239   1.181
  852SOL    HW2 2573   2.932   1.232   1.017
  853SOL     OW 2574   3.500   1.099   1.079
  853SOL    HW1 2575   3.505   1.180   1.138
  853SOL    HW2 2576   3.414   1.101   1.028
  854SOL     OW 2577   2.777   0.089   1.402
  854SOL    HW1 2578   2.802   0.069   1.307
  854SOL    HW2 2579   2.849   0.145   1.444
  855SOL     OW 2580   2.842   1.116   1.719
  855SOL    HW1 2581   2.743   1.122   1.729
  855SOL    HW2 2582   2.865   1.036   1.663
  856SOL     OW 2583   2.567   1.050   0.368
  856SOL    HW1 2584   2.553   1.057   0.467
  856SOL    HW2 2585   2.651   0.999   0.350
  857SOL     OW 2586   2.272   0.813   1.251
  857SOL    HW1 2587   2.358   0.825   1.301
  857SOL    HW2 2588   2.230   0.726   1.278
  858SOL     OW 2589   3.136   0.386   1.262
  858SOL    HW1 2590   3.157   0.460   1.326
  858SOL    HW2 2591   3.047   0.403   1.219
  859SOL     OW 2592   1.926   1.564   1.331
  859SOL    HW1 2593   1.880   1.646   1.297
  859SOL    HW2 2594   2.024   1.583   1.340
  860SOL     OW 2595   2.229   1.100   0.501
  860SOL    HW1 2596   2.222   1.183   0.445
  860SOL    HW2 2597   2.233   1.020   0.441
  861SOL     OW 2598   2.428   0.537   0.865
  861SOL    HW1 2599   2.440   0.603   0.791
  861SOL    HW2 2600   2.474   0.571   0.948
  862SOL     OW 2601   3.114   1.348   0.388
  862SOL    HW1 2602   3.164   1.425   0.428
  862SOL    HW2 2603   3.019   1.350   0.420
  863SOL     OW 2604   3.134   1.445   1.142
  863SOL    HW1 2605   3.181   1.458   1.229
  863SOL    HW2 2606   3.068   1.371   1.151
  864SOL     OW 2607   3.444   0.639   0.472
  864SOL    HW1 2608   3.413   0.700   0.545
  864SOL    HW2 2609   3.494   0.691   0.403
  865SOL     OW 2610   2.216   1.510   1.329
  865SOL    HW1 2611   2.195   1.466   1.242
  865SOL    HW2 2612   2.313   1.536   1.332
  866SOL     OW 2613   2.264   0.751   1.598
  866SOL    HW1 2614   2.332   0.806   1.551
  866SOL    HW2 2615   2.304   0.663   1.625
  867SOL     OW 2616   3.449   0.779   1.670
  867SOL    HW1 2617   3.357   0.817   1.665
  867SOL    HW2 2618   3.509   0.826   1.605
  868SOL     OW 2619   2.875   0.105   1.770
  868SOL    HW1 2620   2.881   0.190   1.718
  868SOL    HW2 2621   2.907   0.029   1.713
  869SOL     OW 2622   2.366   0.050   1.740
  869SOL    HW1 2623   2.324  -0.007   1.670
  869SOL    HW2 2624   2.300   0.119   1.772
  870SOL     OW 2625   2.435   0.870   1.029
  870SOL    HW1 2626   2.479   0.959   1.020
  870SOL    HW2 2627   2.372   0.870   1.106
  871SOL     OW 2628   3.222   0.862   1.045
  871SOL    HW1 2629   3.147   0.862   0.979
  871SOL    HW2 2630   3.259   0.770   1.054
  872SOL     OW 2631   3.071   0.525   0.275
  872SOL    HW1 2632   3.084   0.441   0.329
  872SOL    HW2 2633   3.042   0.599   0.335
  873SOL     OW 2634   2.169   0.213   1.231
  873SOL    HW1 2635   2.146   0.250   1.321
  873SOL    HW2 2636   2.139   0.118   1.225
  874SOL     OW 2637   1.899   1.310   1.282
  874SOL    HW1 2638   1.952   1.261   1.350
  874SOL    HW2 2639   1.921   1.408   1.287
  875SOL     OW 2640   2.594   0.634   1.064
  875SOL    HW1 2641   2.653   0.608   0.988
  875SOL    HW2 2642   2.566   0.730   1.053
  876SOL     OW 2643   2.169   0.063   0.618
  876SOL    HW1 2644   2.158   0.157   0.651
  876SOL    HW2 2645   2.164   0.000   0.695
  877SOL     OW 2646   3.484   0.367   0.374
  877SOL    HW1 2647   3.486   0.291   0.438
  877SOL    HW2 2648   3.436   0.444   0.414
  878SOL     OW 2649   2.885   0.766   0.966
  878SOL    HW1 2650   2.900   0.787   1.062
  878SOL    HW2 2651   2.855   0.671   0.957
  879SOL     OW 2652   2.842   1.573   1.700
  879SOL    HW1 2653   2.822   1.617   1.612
  879SOL    HW2 2654   2.881   1.482   1.684
  880SOL     OW 2655   2.212   0.898   1.804
  880SOL    HW1 2656   2.288   0.942   1.852
  880SOL    HW2 2657   2.247   0.851   1.722
  881SOL     OW 2658   3.402   0.274   0.125
  881SOL    HW1 2659   3.341   0.199   0.148
  881SOL    HW2 2660   3.424   0.326   0.208
  882SOL     OW 2661   3.165   0.838   0.042
  882SOL    HW1 2662   3.199   0.745   0.057
  882SOL    HW2 2663   3.183   0.865  -0.053
  883SOL     OW 2664   2.930   1.333   0.849
  883SOL    HW1 2665   2.937   1.249   0.794
  883SOL    HW2 2666   2.992   1.402   0.813
  884SOL     OW 2667   2.181   0.810   0.949
  884SOL    HW1 2668   2.274   0.846   0.954
  884SOL    HW2 2669   2.175   0.725   1.001
  885SOL     OW 2670   2.201   0.509   1.006
  885SOL    HW1 2671   2.149   0.426   0.989
  885SOL    HW2 2672   2.278   0.514   0.942
  886SOL     OW 2673   3.000   0.380   1.678
  886SOL    HW1 2674   2.955   0.443   1.742
  886SOL    HW2 2675   3.093   0.411   1.661
  887SOL     OW 2676   3.022   0.207   1.477
  887SOL    HW1 2677   3.022   0.271   1.554
  887SOL    HW2 2678   3.050   0.255   1.394
  888SOL     OW 2679   1.870   1.326   0.200
  888SOL    HW1 2680   1.777   1.347   0.169
  888SOL    HW2 2681   1.880   1.227   0.213
  889SOL     OW 2682   1.950   1.801   0.927
  889SOL    HW1 2683   1.908   1.715   0.900
  889SOL    HW2 2684   2.044   1.804   0.893
  890SOL     OW 2685   2.366   1.568   0.910
  890SOL    HW1 2686   2.432   1.642   0.919
  890SOL    HW2 2687   2.410   1.489   0.868
  891SOL     OW 2688   2.864   0.796   1.238
  891SOL    HW1 2689   2.905   0.764   1.324
  891SOL    HW2 2690   2.768   0.769   1.235
  892SOL     OW 2691   1.902   0.544   1.114
  892SOL    HW1 2692   1.987   0.511   1.073
  892SOL    HW2 2693   1.915   0.559   1.212
  893SOL     OW 2694   2.051   0.520   1.722
  893SOL    HW1 2695   2.110   0.480   1.652
  893SOL    HW2 2696   1.993   0.591   1.681
  894SOL     OW 2697   3.231   0.950   1.660
  894SOL    HW1 2698   3.270   1.039   1.680
  894SOL    HW2 2699   3.241   0.930   1.563
  895SOL     OW 2700   2.677   0.572   0.325
  895SOL    HW1 2701   2.684   0.483   0.279
  895SOL    HW2 2702   2.583   0.606   0.317
  896SOL     OW 2703   2.114   1.564   1.744
  896SOL    HW1 2704   2.084   1.621   1.820
  896SOL    HW2 2705   2.107   1.467   1.770
  897SOL     OW 2706   2.533   0.464   1.269
  897SOL    HW1 2707   2.499   0.375   1.239
  897SOL    HW2 2708   2.559   0.518   1.189
  898SOL     OW 2709   2.792   1.678   1.465
  898SOL    HW1 2710   2.768   1.660   1.370
  898SOL    HW2 2711   2.822   1.772   1.475
  899SOL     OW 2712   2.335   0.500   0.191
  899SOL    HW1 2713   2.396   0.580   0.195
  899SOL    HW2 2714   2.240   0.531   0.198
  900SOL     OW 2715   2.021   1.137   1.466
  900SOL    HW1 2716   2.043   1.076   1.542
  900SOL    HW2 2717   2.031   1.088   1.380
  901SOL     OW 2718   3.209   1.059   1.234
  901SOL    HW1 2719   3.233   0.996   1.160
  901SOL    HW2 2720   3.119   1.099   1.216
  902SOL     OW 2721   3.164   0.855   0.309
  902SOL    HW1 2722   3.078   0.824   0.351
  902SOL    HW2 2723   3.160   0.841   0.210
  903SOL     OW 2724   3.621   1.747   1.154
  903SOL    HW1 2725   3.682   1.777   1.081
  903SOL    HW2 2726   3.583   1.658   1.132
  904SOL     OW 2727   3.114   1.731   1.128
  904SOL    HW1 2728   3.198   1.736   1.074
  904SOL    HW2 2729   3.091   1.635   1.146
  905SOL     OW 2730   1.945   1.258   1.022
  905SOL    HW1 2731   1.940   1.257   1.122
  905SOL    HW2 2732   1.862   1.217   0.984
  906SOL     OW 2733   2.550   1.662   1.716
  906SOL    HW1 2734   2.494   1.743   1.725
  906SOL    HW2 2735   2.602   1.666   1.630
  907SOL     OW 2736   2.765   0.086   0.133
  907SOL    HW1 2737   2.816   0.087   0.047
  907SOL    HW2 2738   2.821   0.044   0.204
  908SOL     OW 2739   3.250   1.573   0.477
  908SOL    HW1 2740   3.317   1.585   0.403
  908SOL    HW2 2741   3.210   1.662   0.500
  909SOL     OW 2742   3.142   0.927   0.672
  909SOL    HW1 2743   3.202   0.846   0.674
  909SOL    HW2 2744   3.182   0.996   0.612
  910SOL     OW 2745   2.692   1.273   1.422
  910SOL    HW1 2746   2.687   1.306   1.517
  910SOL    HW2 2747   2.606   1.292   1.376
  911SOL     OW 2748   2.534   1.616   0.154
  911SOL    HW1 2749   2.543   1.626   0.055
  911SOL    HW2 2750   2.494   1.527   0.175
  912SOL     OW 2751   2.125   0.326   0.720
  912SOL    HW1 2752   2.046   0.377   0.686
  912SOL    HW2 2753   2.116   0.311   0.818
  913SOL     OW 2754   3.056   1.612   0.031
  913SOL    HW1 2755   3.062   1.519   0.068
  913SOL    HW2 2756   2.997   1.612  -0.049
  914SOL     OW 2757   2.684   1.002   1.372
  914SOL    HW1 2758   2.724   1.001   1.280
  914SOL    HW2 2759   2.694   1.094   1.412
  915SOL     OW 2760   2.778   0.910   0.291
  915SOL    HW1 2761   2.841   0.948   0.223
  915SOL    HW2 2762   2.818   0.827   0.330
  916SOL     OW 2763   3.366   1.607   0.044
  916SOL    HW1 2764   3.274   1.644   0.051
  916SOL    HW2 2765   3.404   1.627  -0.046
  917SOL     OW 2766   2.234   1.288   1.490
  917SOL    HW1 2767   2.221   1.381   1.456
  917SOL    HW2 2768   2.150   1.236   1.477
  918SOL     OW 2769   2.901   1.098   0.696
  918SOL    HW1 2770   2.831   1.051   0.750
  918SOL    HW2 2771   2.960   1.030   0.653
  919SOL     OW 2772   2.876   0.236   0.971
  919SOL    HW1 2773   2.868   0.200   0.878
  919SOL    HW2 2774   2.874   0.160   1.036
  920SOL     OW 2775   2.452   1.487   0.491
  920SOL    HW1 2776   2.494   1.429   0.421
  920SOL    HW2 2777   2.408   1.566   0.447
  921SOL     OW 2778   2.117   1.348   0.290
  921SOL    HW1 2779   2.021   1.349   0.263
  921SOL    HW2 2780   2.129   1.401   0.374
  922SOL     OW 2781   1.967   1.013   1.726
  922SOL    HW1 2782   1.890   0.980   1.780
  922SOL    HW2 2783   2.052   0.983   1.768
  923SOL     OW 2784   2.534   0.203   1.489
  923SOL    HW1 2785   2.624   0.187   1.449
  923SOL    HW2 2786   2.542   0.208   1.588
  924SOL     OW 2787   1.937   0.345   0.033
  924SOL    HW1 2788   1.845   0.317   0.004
  924SOL    HW2 2789   1.968   0.422  -0.023
  925SOL     OW 2790   3.302   0.856   1.398
  925SOL    HW1 2791   3.245   0.908   1.335
  925SOL    HW2 2792   3.398   0.868   1.374
  926SOL     OW 2793   1.934   0.166   0.318
  926SOL    HW1 2794   1.917   0.249   0.264
  926SOL    HW2 2795   2.024   0.129   0.296
  927SOL     OW 2796   3.045   1.335   0.119
  927SOL    HW1 2797   2.946   1.324   0.121
  927SOL    HW2 2798   3.079   1.350   0.212
  928SOL     OW 2799   2.475   0.842   1.431
  928SOL    HW1 2800   2.531   0.923   1.414
  928SOL    HW2 2801   2.534   0.762   1.434
  929SOL     OW 2802   3.355   1.767   0.959
  929SOL    HW1 2803   3.388   1.831   0.890
  929SOL    HW2 2804   3.421   1.761   1.034
  930SOL     OW 2805   2.578   0.565   1.708
  930SOL    HW1 2806   2.597   0.630   1.782
  930SOL    HW2 2807   2.638   0.485   1.717
  931SOL     OW 2808   3.312   1.220   1.633
  931SOL    HW1 2809   3.303   1.210   1.732
  931SOL    HW2 2810   3.408   1.213   1.607
  932SOL     OW 2811   2.252   1.741   1.560
  932SOL    HW1 2812   2.161   1.782   1.558
  932SOL    HW2 2813   2.245   1.647   1.592
  933SOL     OW 2814   3.536   0.883   1.254
  933SOL    HW1 2815   3.509   0.794   1.217
  933SOL    HW2 2816   3.537   0.951   1.181
  934SOL     OW 2817   3.087   0.325   0.449
  934SOL    HW1 2818   3.152   0.251   0.438
  934SOL    HW2 2819   3.107   0.375   0.533
  935SOL     OW 2820   2.456   0.745   0.652
  935SOL    HW1 2821   2.506   0.830   0.633
  935SOL    HW2 2822   2.368   0.747   0.604
  936SOL     OW 2823   2.721   1.374   0.016
  936SOL    HW1 2824   2.675   1.389   0.104
  936SOL    HW2 2825   2.765   1.459  -0.014
  937SOL     OW 2826   2.523   1.790   0.953
  937SOL    HW1 2827   2.477   1.878   0.940
  937SOL    HW2 2828   2.622   1.802   0.946
  938SOL     OW 2829   2.721   0.956   0.861
  938SOL    HW1 2830   2.775   0.887   0.909
  938SOL    HW2 2831   2.689   1.025   0.927
  939SOL     OW 2832   2.945   0.984   0.087
  939SOL    HW1 2833   2.922   1.037   0.005
  939SOL    HW2 2834   3.026   0.928   0.068
  940SOL     OW 2835   3.723   1.569   0.851
  940SOL    HW1 2836   3.652   1.557   0.781
  940SOL    HW2 2837   3.724   1.490   0.911
  941SOL     OW 2838   2.083   1.314   1.844
  941SOL    HW1 2839   2.018   1.241   1.823
  941SOL    HW2 2840   2.087   1.328   1.942
  942SOL     OW 2841   1.941   1.240   0.653
  942SOL    HW1 2842   1.940   1.193   0.741
  942SOL    HW2 2843   2.023   1.212   0.602
  943SOL     OW 2844   2.534   1.391   1.624
  943SOL    HW1 2845   2.456   1.341   1.662
  943SOL    HW2 2846   2.531   1.486   1.655
  944SOL     OW 2847   3.686   0.192   1.227
  944SOL    HW1 2848   3.682   0.102   1.271
  944SOL    HW2 2849   3.689   0.181   1.128
  945SOL     OW 2850   2.290   0.424   0.520
  945SOL    HW1 2851   2.320   0.352   0.458
  945SOL    HW2 2852   2.251   0.384   0.603
  946SOL     OW 2853   2.179   0.547   1.280
  946SOL    HW1 2854   2.217   0.488   1.352
  946SOL    HW2 2855   2.219   0.521   1.192
  947SOL     OW 2856   2.674   1.586   0.687
  947SOL    HW1 2857   2.706   1.596   0.593
  947SOL    HW2 2858   2.595   1.524   0.689
  948SOL     OW 2859   3.286   0.214   1.112
  948SOL    HW1 2860   3.338   0.149   1.167
  948SOL    HW2 2861   3.237   0.277   1.173
  949SOL     OW 2862   2.863   0.034   1.154
  949SOL    HW1 2863   2.800  -0.038   1.123
  949SOL    HW2 2864   2.956  -0.002   1.154
  950SOL     OW 2865   2.632   1.330   0.301
  950SOL    HW1 2866   2.586   1.243   0.318
  950SOL    HW2 2867   2.723   1.327   0.342
  951SOL     OW 2868   2.480   1.567   1.284
  951SOL    HW1 2869   2.475   1.649   1.341
  951SOL    HW2 2870   2.569   1.564   1.239
  952SOL     OW 2871   3.214   0.052   0.168
  952SOL    HW1 2872   3.249   0.011   0.084
  952SOL    HW2 2873   3.124   0.014   0.188
  953SOL     OW 2874   3.162   0.453   0.691
  953SOL    HW1 2875   3.103   0.533   0.695
  953SOL    HW2 2876   3.177   0.418   0.784
  954SOL     OW 2877   3.455   0.221   0.882
  954SOL    HW1 2878   3.371   0.220   0.936
  954SOL    HW2 2879   3.457   0.304   0.826
  955SOL     OW 2880   1.901   1.077   0.300
  955SOL    HW1 2881   2.000   1.066   0.291
  955SOL    HW2 2882   1.861   0.991   0.332
  956SOL     OW 2883   2.737   1.646   0.337
  956SOL    HW1 2884   2.660   1.611   0.283
  956SOL    HW2 2885   2.705   1.717   0.399
  957SOL     OW 2886   2.092   0.628   1.975
  957SOL    HW1 2887   1.999   0.626   2.012
  957SOL    HW2 2888   2.093   0.589   1.883
  958SOL     OW 2889   2.087   0.275   2.858
  958SOL    HW1 2890   2.122   0.258   2.950
  958SOL    HW2 2891   1.999   0.230   2.846
  959SOL     OW 2892   1.881   0.368   2.509
  959SOL    HW1 2893   1.799   0.411   2.548
  959SOL    HW2 2894   1.853   0.295   2.446
  960SOL     OW 2895   2.431   1.275   3.027
  960SOL    HW1 2896   2.338   1.268   2.990
  960SOL    HW2 2897   2.442   1.364   3.071
  961SOL     OW 2898   3.417   1.511   2.565
  961SOL    HW1 2899   3.360   1.495   2.646
  961SOL    HW2 2900   3.358   1.521   2.485
  962SOL     OW 2901   2.997   0.703   2.579
  962SOL    HW1 2902   3.054   0.781   2.554
  962SOL    HW2 2903   2.937   0.729   2.655
  963SOL     OW 2904   2.630   1.144   2.885
  963SOL    HW1 2905   2.552   1.161   2.945
  963SOL    HW2 2906   2.664   1.231   2.849
  964SOL     OW 2907   2.547   1.012   2.527
  964SOL    HW1 2908   2.616   0.996   2.597
  964SOL    HW2 2909   2.474   1.069   2.565
  965SOL     OW 2910   2.197   1.435   2.923
  965SOL    HW1 2911   2.119   1.404   2.870
  965SOL    HW2 2912   2.255   1.493   2.866
  966SOL     OW 2913   3.322   1.505   3.201
  966SOL    HW1 2914   3.346   1.599   3.227
  966SOL    HW2 2915   3.306   1.451   3.283
  967SOL     OW 2916   2.300   0.392   3.361
  967SOL    HW1 2917   2.382   0.336   3.370
  967SOL    HW2 2918   2.219   0.334   3.365
  968SOL     OW 2919   2.093   1.713   2.345
  968SOL    HW1 2920   2.127   1.790   2.399
  968SOL    HW2 2921   2.137   1.713   2.255
  969SOL     OW 2922   2.092   1.434   2.400
  969SOL    HW1 2923   2.066   1.530   2.400
  969SOL    HW2 2924   2.021   1.380   2.445
  970SOL     OW 2925   2.102   1.091   2.748
  970SOL    HW1 2926   2.116   1.007   2.800
  970SOL    HW2 2927   2.047   1.155   2.803
  971SOL     OW 2928   2.482   1.786   3.301
  971SOL    HW1 2929   2.390   1.769   3.336
  971SOL    HW2 2930   2.510   1.878   3.327
  972SOL     OW 2931   2.468   0.964   1.985
  972SOL    HW1 2932   2.475   1.048   1.931
  972SOL    HW2 2933   2.514   0.977   2.073
  973SOL     OW 2934   3.456   0.114   3.342
  973SOL    HW1 2935   3.438   0.181   3.270
  973SOL    HW2 2936   3.453   0.160   3.431
  974SOL     OW 2937   1.984   0.643   2.425
  974SOL    HW1 2938   1.939   0.555   2.442
  974SOL    HW2 2939   1.983   0.697   2.509
  975SOL     OW 2940   3.551   0.922   2.474
  975SOL    HW1 2941   3.646   0.893   2.482
  975SOL    HW2 2942   3.543   0.987   2.399
  976SOL     OW 2943   1.975   0.737   3.459
  976SOL    HW1 2944   2.063   0.724   3.504
  976SOL    HW2 2945   1.962   0.834   3.437
  977SOL     OW 2946   2.475   1.365   2.588
  977SOL    HW1 2947   2.426   1.278   2.597
  977SOL    HW2 2948   2.452   1.408   2.501
  978SOL     OW 2949   3.155   1.228   3.285
  978SOL    HW1 2950   3.192   1.155   3.227
  978SOL    HW2 2951   3.207   1.233   3.370
  979SOL     OW 2952   2.671   0.004   2.364
  979SOL    HW1 2953   2.711   0.095   2.355
  979SOL    HW2 2954   2.571   0.012   2.370
  980SOL     OW 2955   2.059   0.976   3.126
  980SOL    HW1 2956   2.148   0.931   3.112
  980SOL    HW2 2957   1.986   0.911   3.107
  981SOL     OW 2958   3.387   0.999   2.052
  981SOL    HW1 2959   3.324   0.923   2.065
  981SOL    HW2 2960   3.435   1.017   2.138
  982SOL     OW 2961   3.328   1.417   2.815
  982SOL    HW1 2962   3.269   1.423   2.895
  982SOL    HW2 2963   3.313   1.329   2.769
  983SOL     OW 2964   3.529   1.714   2.434
  983SOL    HW1 2965   3.488   1.691   2.346
  983SOL    HW2 2966   3.511   1.640   2.499
  984SOL     OW 2967   2.460   0.729   2.132
  984SOL    HW1 2968   2.484   0.798   2.064
  984SOL    HW2 2969   2.382   0.762   2.186
  985SOL     OW 2970   3.143   0.345   2.806
  985SOL    HW1 2971   3.057   0.295   2.793
  985SOL    HW2 2972   3.205   0.291   2.862
  986SOL     OW 2973   3.438   1.662   2.169
  986SOL    HW1 2974   3.527   1.708   2.172
  986SOL    HW2 2975   3.417   1.638   2.074
  987SOL     OW 2976   2.669   0.605   3.327
  987SOL    HW1 2977   2.622   0.602   3.416
  987SOL    HW2 2978   2.618   0.550   3.261
  988SOL     OW 2979   2.835   0.890   3.434
  988SOL    HW1 2980   2.881   0.806   3.405
  988SOL    HW2 2981   2.779   0.924   3.359
  989SOL     OW 2982   2.853   0.410   3.104
  989SOL    HW1 2983   2.776   0.444   3.158
  989SOL    HW2 2984   2.819   0.359   3.025
  990SOL     OW 2985   2.903   0.701   2.291
  990SOL    HW1 2986   2.929   0.697   2.387
  990SOL    HW2 2987   2.818   0.650   2.277
  991SOL     OW 2988   1.938   0.811   2.651
  991SOL    HW1 2989   2.037   0.799   2.660
  991SOL    HW2 2990   1.914   0.906   2.672
  992SOL     OW 2991   1.992   1.821   3.433
  992SOL    HW1 2992   1.982   1.806   3.532
  992SOL    HW2 2993   1.906   1.857   3.397
  993SOL     OW 2994   2.727   0.348   2.057
  993SOL    HW1 2995   2.786   0.411   2.008
  993SOL    HW2 2996   2.746   0.254   2.028
  994SOL     OW 2997   3.224   1.144   2.407
  994SOL    HW1 2998   3.307   1.115   2.359
  994SOL    HW2 2999   3.175   1.211   2.351
  995SOL     OW 3000   2.412   0.196   2.747
  995SOL    HW1 3001   2.407   0.191   2.847
  995SOL    HW2 3002   2.414   0.292   2.718
  996SOL     OW 3003   2.870   1.456   2.339
  996SOL    HW1 3004   2.824   1.528   2.287
  996SOL    HW2 3005   2.866   1.476   2.437
  997SOL     OW 3006   2.213   1.801   2.715
  997SOL    HW1 3007   2.263   1.715   2.721
  997SOL    HW2 3008   2.278   1.878   2.712
  998SOL     OW 3009   3.089   1.550   3.368
  998SOL    HW1 3010   3.095   1.473   3.432
  998SOL    HW2 3011   3.037   1.524   3.288
  999SOL     OW 3012   2.183   0.943   2.104
  999SOL    HW1 3013   2.265   0.982   2.062
  999SOL    HW2 3014   2.156   0.861   2.055
 1000SOL     OW 3015   3.320   0.735   2.590
 1000SOL    HW1 3016   3.315   0.670   2.665
 1000SOL    HW2 3017   3.400   0.794   2.603
 1001SOL     OW 3018   2.323   1.266   3.589
 1001SOL    HW1 3019   2.273   1.267   3.503
 1001SOL    HW2 3020   2.260   1.248   3.665
 1002SOL     OW 3021   2.973   1.776   2.099
 1002SOL    HW1 3022   2.913   1.714   2.149
 1002SOL    HW2 3023   3.004   1.732   2.014
 1003SOL     OW 3024   2.064   0.285   3.360
 1003SOL    HW1 3025   1.984   0.345   3.347
 1003SOL    HW2 3026   2.054   0.236   3.446
 1004SOL     OW 3027   2.326   1.743   2.185
 1004SOL    HW1 3028   2.359   1.782   2.271
 1004SOL    HW2 3029   2.402   1.736   2.120
 1005SOL     OW 3030   3.262   0.107   2.288
 1005SOL    HW1 3031   3.238   0.070   2.198
 1005SOL    HW2 3032   3.361   0.123   2.292
 1006SOL     OW 3033   2.111   1.785   3.103
 1006SOL    HW1 3034   2.168   1.720   3.153
 1006SOL    HW2 3035   2.095   1.752   3.010
 1007SOL     OW 3036   2.802   1.698   2.766
 1007SOL    HW1 3037   2.882   1.641   2.787
 1007SOL    HW2 3038   2.753   1.658   2.689
 1008SOL     OW 3039   2.244   0.700   2.342
 1008SOL    HW1 3040   2.289   0.610   2.339
 1008SOL    HW2 3041   2.150   0.689   2.375
 1009SOL     OW 3042   2.476   0.122   1.979
 1009SOL    HW1 3043   2.574   0.100   1.986
 1009SOL    HW2 3044   2.445   0.105   1.886
 1010SOL     OW 3045   2.750   1.514   3.057
 1010SOL    HW1 3046   2.727   1.489   2.963
 1010SOL    HW2 3047   2.811   1.445   3.096
 1011SOL     OW 3048   3.213   0.590   3.295
 1011SOL    HW1 3049   3.241   0.547   3.380
 1011SOL    HW2 3050   3.238   0.686   3.296
 1012SOL     OW 3051   2.665   1.402   2.786
 1012SOL    HW1 3052   2.755   1.416   2.744
 1012SOL    HW2 3053   2.594   1.404   2.715
 1013SOL     OW 3054   2.784   0.503   2.761
 1013SOL    HW1 3055   2.759   0.494   2.665
 1013SOL    HW2 3056   2.832   0.421   2.792
 1014SOL     OW 3057   2.401   0.064   2.374
 1014SOL    HW1 3058   2.320   0.065   2.432
 1014SOL    HW2 3059   2.404   0.147   2.319
 1015SOL     OW 3060   3.296   1.188   1.903
 1015SOL    HW1 3061   3.328   1.112   1.960
 1015SOL    HW2 3062   3.204   1.215   1.933
 1016SOL     OW 3063   2.159   0.035   2.033
 1016SOL    HW1 3064   2.208   0.119   2.012
 1016SOL    HW2 3065   2.221  -0.030   2.078
 1017SOL     OW 3066   2.797   0.236   2.342
 1017SOL    HW1 3067   2.749   0.277   2.264
 1017SOL    HW2 3068   2.896   0.234   2.323
 1018SOL     OW 3069   2.938   0.683   3.326
 1018SOL    HW1 3070   2.858   0.622   3.329
 1018SOL    HW2 3071   3.019   0.630   3.302
 1019SOL     OW 3072   3.089   1.570   2.655
 1019SOL    HW1 3073   3.110   1.644   2.590
 1019SOL    HW2 3074   3.157   1.570   2.728
 1020SOL     OW 3075   2.321   1.152   2.603
 1020SOL    HW1 3076   2.250   1.125   2.668
 1020SOL    HW2 3077   2.295   1.124   2.510
 1021SOL     OW 3078   3.133   1.797   2.453
 1021SOL    HW1 3079   3.177   1.861   2.389
 1021SOL    HW2 3080   3.083   1.849   2.523
 1022SOL     OW 3081   2.894   0.549   1.878
 1022SOL    HW1 3082   2.853   0.631   1.839
 1022SOL    HW2 3083   2.958   0.575   1.951
 1023SOL     OW 3084   1.940   0.556   3.248
 1023SOL    HW1 3085   2.032   0.555   3.207
 1023SOL    HW2 3086   1.934   0.630   3.315
 1024SOL     OW 3087   2.423   0.222   3.009
 1024SOL    HW1 3088   2.461   0.138   3.046
 1024SOL    HW2 3089   2.335   0.241   3.053
 1025SOL     OW 3090   2.728   0.454   2.504
 1025SOL    HW1 3091   2.696   0.526   2.442
 1025SOL    HW2 3092   2.752   0.373   2.451
 1026SOL     OW 3093   2.879   0.039   2.615
 1026SOL    HW1 3094   2.807   0.044   2.546
 1026SOL    HW2 3095   2.855  -0.030   2.684
 1027SOL     OW 3096   3.291   1.173   2.729
 1027SOL    HW1 3097   3.236   1.089   2.722
 1027SOL    HW2 3098   3.317   1.202   2.637
 1028SOL     OW 3099   3.328   0.590   2.854
 1028SOL    HW1 3100   3.298   0.495   2.861
 1028SOL    HW2 3101   3.401   0.606   2.920
 1029SOL     OW 3102   3.719   0.833   2.239
 1029SOL    HW1 3103   3.761   0.769   2.303
 1029SOL    HW2 3104   3.681   0.782   2.161
 1030SOL     OW 3105   2.350   1.385   2.036
 1030SOL    HW1 3106   2.263   1.370   2.083
 1030SOL    HW2 3107   2.333   1.411   1.941
 1031SOL     OW 3108   3.252   0.575   1.940
 1031SOL    HW1 3109   3.198   0.554   2.021
 1031SOL    HW2 3110   3.343   0.534   1.949
 1032SOL     OW 3111   2.389   0.256   2.190
 1032SOL    HW1 3112   2.416   0.197   2.115
 1032SOL    HW2 3113   2.389   0.351   2.159
 1033SOL     OW 3114   2.926   1.347   3.202
 1033SOL    HW1 3115   2.846   1.324   3.257
 1033SOL    HW2 3116   3.009   1.321   3.251
 1034SOL     OW 3117   2.973   1.195   2.962
 1034SOL    HW1 3118   2.933   1.239   3.043
 1034SOL    HW2 3119   2.932   1.232   2.879
 1035SOL     OW 3120   3.500   1.099   2.941
 1035SOL    HW1 3121   3.505   1.180   3.000
 1035SOL    HW2 3122   3.414   1.101   2.890
 1036SOL     OW 3123   2.777   0.089   3.264
 1036SOL    HW1 3124   2.802   0.069   3.169
 1036SOL    HW2 3125   2.849   0.145   3.306
 1037SOL     OW 3126   2.567   1.050   2.230
 1037SOL    HW1 3127   2.553   1.057   2.329
 1037SOL    HW2 3128   2.651   0.999   2.212
 1038SOL     OW 3129   2.272   0.813   3.113
 1038SOL    HW1 3130   2.358   0.825   3.163
 1038SOL    HW2 3131   2.230   0.726   3.140
 1039SOL     OW 3132   3.136   0.386   3.124
 1039SOL    HW1 3133   3.157   0.460   3.188
 1039SOL    HW2 3134   3.047   0.403   3.081
 1040SOL     OW 3135   1.926   1.564   3.193
 1040SOL    HW1 3136   1.880   1.646   3.159
 1040SOL    HW2 3137   2.024   1.583   3.202
 1041SOL     OW 3138   2.229   1.100   2.363
 1041SOL    HW1 3139   2.222   1.183   2.307
 1041SOL    HW2 3140   2.233   1.020   2.303
 1042SOL     OW 3141   2.428   0.537   2.727
 1042SOL    HW1 3142   2.440   0.603   2.653
 1042SOL    HW2 3143   2.474   0.571   2.810
 1043SOL     OW 3144   3.114   1.348   2.250
 1043SOL    HW1 3145   3.164   1.425   2.290
 1043SOL    HW2 3146   3.019   1.350   2.282
 1044SOL     OW 3147   3.134   1.445   3.004
 1044SOL    HW1 3148   3.181   1.458   3.091
 1044SOL    HW2 3149   3.068   1.371   3.013
 1045SOL     OW 3150   3.444   0.639   2.334
 1045SOL    HW1 3151   3.413   0.700   2.407
 1045SOL    HW2 3152   3.494   0.691   2.265
 1046SOL     OW 3153   2.216   1.510   3.191
 1046SOL    HW1 3154   2.195   1.466   3.104
 1046SOL    HW2 3155   2.313   1.536   3.194
 1047SOL     OW 3156   2.264   0.751   3.460
 1047SOL    HW1 3157   2.332   0.806   3.413
 1047SOL    HW2 3158   2.304   0.663   3.487
 1048SOL     OW 3159   3.449   0.779   3.532
 1048SOL    HW1 3160   3.357   0.817   3.527
 1048SOL    HW2 3161   3.509   0.826   3.467
 1049SOL     OW 3162   2.435   0.870   2.891
 1049SOL    HW1 3163   2.479   0.959   2.882
 1049SOL    HW2 3164   2.372   0.870   2.968
 1050SOL     OW 3165   3.222   0.862   2.907
 1050SOL    HW1 3166   3.147   0.862   2.841
 1050SOL    HW2 3167   3.259   0.770   2.916
 1051SOL     OW 3168   3.071   0.525   2.137
 1051SOL    HW1 3169   3.084   0.441   2.191
 1051SOL    HW2 3170   3.042   0.599   2.197
 1052SOL     OW 3171   2.169   0.213   3.093
 1052SOL    HW1 3172   2.146   0.250   3.183
 1052SOL    HW2 3173   2.139   0.118   3.087
 1053SOL     OW 3174   1.899   1.310   3.144
 1053SOL    HW1 3175   1.952   1.261   3.212
 1053SOL    HW2 3176   1.921   1.408   3.149
 1054SOL     OW 3177   2.594   0.634   2.926
 1054SOL    HW1 3178   2.653   0.608   2.850
 1054SOL    HW2 3179   2.566   0.730   2.915
 1055SOL     OW 3180   2.169   0.063   2.480
 1055SOL    HW1 3181   2.158   0.157   2.513
 1055SOL    HW2 3182   2.164   0.000   2.557
 1056SOL     OW 3183   3.484   0.367   2.236
 1056SOL    HW1 3184   3.486   0.291   2.300
 1056SOL    HW2 3185   3.436   0.444   2.276
 1057SOL     OW 3186   2.885   0.766   2.828
 1057SOL    HW1 3187   2.900   0.787   2.924
 1057SOL    HW2 3188   2.855   0.671   2.819
 1058SOL     OW 3189   3.402   0.274   1.987
 1058SOL    HW1 3190   3.341   0.199   2.010
 1058SOL    HW2 3191   3.424   0.326   2.070
 1059SOL     OW 3192   3.165   0.838   1.904
 1059SOL    HW1 3193   3.199   0.745   1.919
 1059SOL    HW2 3194   3.183   0.865   1.809
 1060SOL     OW 3195   2.930   1.333   2.711
 1060SOL    HW1 3196   2.937   1.249   2.656
 1060SOL    HW2 3197   2.992   1.402   2.675
 1061SOL     OW 3198   2.181   0.810   2.811
 1061SOL    HW1 3199   2.274   0.846   2.816
 1061SOL    HW2 3200   2.175   0.725   2.863
 1062SOL     OW 3201   2.201   0.509   2.868
 1062SOL    HW1 3202   2.149   0.426   2.851
 1062SOL    HW2 3203   2.278   0.514   2.804
 1063SOL     OW 3204   3.022   0.207   3.339
 1063SOL    HW1 3205   3.022   0.271   3.416
 1063SOL    HW2 3206   3.050   0.255   3.256
 1064SOL     OW 3207   1.870   1.326   2.062
 1064SOL    HW1 3208   1.777   1.347   2.031
 1064SOL    HW2 3209   1.880   1.227   2.075
 1065SOL     OW 3210   1.950   1.801   2.789
 1065SOL    HW1 3211   1.908   1.715   2.762
 1065SOL    HW2 3212   2.044   1.804   2.755
 1066SOL     OW 3213   2.366   1.568   2.772
 1066SOL    HW1 3214   2.432   1.642   2.781
 1066SOL    HW2 3215   2.410   1.489   2.730
 1067SOL     OW 3216   2.864   0.796   3.100
 1067SOL    HW1 3217   2.905   0.764   3.186
 1067SOL    HW2 3218   2.768   0.769   3.097
 1068SOL     OW 3219   1.902   0.544   2.976
 1068SOL    HW1 3220   1.987   0.511   2.935
 1068SOL    HW2 3221   1.915   0.559   3.074
 1069SOL     OW 3222   2.677   0.572   2.187
 1069SOL    HW1 3223   2.684   0.483   2.141
 1069SOL    HW2 3224   2.583   0.606   2.179
 1070SOL     OW 3225   2.114   1.564   3.606
 1070SOL    HW1 3226   2.084   1.621   3.682
 1070SOL    HW2 3227   2.107   1.467   3.632
 1071SOL     OW 3228   2.533   0.464   3.131
 1071SOL    HW1 3229   2.499   0.375   3.101
 1071SOL    HW2 3230   2.559   0.518   3.051
 1072SOL     OW 3231   2.792   1.678   3.327
 1072SOL    HW1 3232   2.768   1.660   3.232
 1072SOL    HW2 3233   2.822   1.772   3.337
 1073SOL     OW 3234   2.335   0.500   2.053
 1073SOL    HW1 3235   2.396   0.580   2.057
 1073SOL    HW2 3236   2.240   0.531   2.060
 1074SOL     OW 3237   2.021   1.137   3.328
 1074SOL    HW1 3238   2.043   1.076   3.404
 1074SOL    HW2 3239   2.031   1.088   3.242
 1075SOL     OW 3240   3.209   1.059   3.096
 1075SOL    HW1 3241   3.233   0.996   3.022
 1075SOL    HW2 3242   3.119   1.099   3.078
 1076SOL     OW 3243   3.164   0.855   2.171
 1076SOL    HW1 3244   3.078   0.824   2.213
 1076SOL    HW2 3245   3.160   0.841   2.072
 1077SOL     OW 3246   3.621   1.747   3.016
 1077SOL    HW1 3247   3.682   1.777   2.943
 1077SOL    HW2 3248   3.583   1.658   2.994
 1078SOL     OW 3249   3.114   1.731   2.990
 1078SOL    HW1 3250   3.198   1.736   2.936
 1078SOL    HW2 3251   3.091   1.635   3.008
 1079SOL     OW 3252   1.945   1.258   2.884
 1079SOL    HW1 3253   1.940   1.257   2.984
 1079SOL    HW2 3254   1.862   1.217   2.846
 1080SOL     OW 3255   3.250   1.573   2.339
 1080SOL    HW1 3256   3.317   1.585   2.265
 1080SOL    HW2 3257   3.210   1.662   2.362
 1081SOL     OW 3258   3.142   0.927   2.534
 1081SOL    HW1 3259   3.202   0.846   2.536
 1081SOL    HW2 3260   3.182   0.996   2.474
 1082SOL     OW 3261   2.692   1.273   3.284
 1082SOL    HW1 3262   2.687   1.306   3.379
 1082SOL    HW2 3263   2.606   1.292   3.238
 1083SOL     OW 3264   2.534   1.616   2.016
 1083SOL    HW1 3265   2.543   1.626   1.917
 1083SOL    HW2 3266   2.494   1.527   2.037
 1084SOL     OW 3267   2.125   0.326   2.582
 1084SOL    HW1 3268   2.046   0.377   2.548
 1084SOL    HW2 3269   2.116   0.311   2.680
 1085SOL     OW 3270   3.056   1.612   1.893
 1085SOL    HW1 3271   3.062   1.519   1.930
 1085SOL    HW2 3272   2.997   1.612   1.813
 1086SOL     OW 3273   2.684   1.002   3.234
 1086SOL    HW1 3274   2.724   1.001   3.142
 1086SOL    HW2 3275   2.694   1.094   3.274
 1087SOL     OW 3276   2.778   0.910   2.153
 1087SOL    HW1 3277   2.841   0.948   2.085
 1087SOL    HW2 3278   2.818   0.827   2.192
 1088SOL     OW 3279   3.366   1.607   1.906
 1088SOL    HW1 3280   3.274   1.644   1.913
 1088SOL    HW2 3281   3.404   1.627   1.816
 1089SOL     OW 3282   2.234   1.288   3.352
 1089SOL    HW1 3283   2.221   1.381   3.318
 1089SOL    HW2 3284   2.150   1.236   3.339
 1090SOL     OW 3285   2.901   1.098   2.558
 1090SOL    HW1 3286   2.831   1.051   2.612
 1090SOL    HW2 3287   2.960   1.030   2.515
 1091SOL     OW 3288   2.876   0.236   2.833
 1091SOL    HW1 3289   2.868   0.200   2.740
 1091SOL    HW2 3290   2.874   0.160   2.898
 1092SOL     OW 3291   2.452   1.487   2.353
 1092SOL    HW1 3292   2.494   1.429   2.283
 1092SOL    HW2 3293   2.408   1.566   2.309
 1093SOL     OW 3294   2.117   1.348   2.152
 1093SOL    HW1 3295   2.021   1.349   2.125
 1093SOL    HW2 3296   2.129   1.401   2.236
 1094SOL     OW 3297   1.967   1.013   3.588
 1094SOL    HW1 3298   1.890   0.980   3.642
 1094SOL    HW2 3299   2.052   0.983   3.630
 1095SOL     OW 3300   2.534   0.203   3.351
 1095SOL    HW1 3301   2.624   0.187   3.311
 1095SOL    HW2 3302   2.542   0.208   3.450
 1096SOL     OW 3303   1.937   0.345   1.895
 1096SOL    HW1 3304   1.845   0.317   1.866
 1096SOL    HW2 3305   1.968   0.422   1.839
 1097SOL     OW 3306   3.302   0.856   3.260
 1097SOL    HW1 3307   3.245   0.908   3.197
 1097SOL    HW2 3308   3.398   0.868   3.236
 1098SOL     OW 3309   1.934   0.166   2.180
 1098SOL    HW1 3310   1.917   0.249   2.126
 1098SOL    HW2 3311   2.024   0.129   2.158
 1099SOL     OW 3312   3.045   1.335   1.981
 1099SOL    HW1 3313   2.946   1.324   1.983
 1099SOL    HW2 3314   3.079   1.350   2.074
 1100SOL     OW 3315   2.475   0.842   3.293
 1100SOL    HW1 3316   2.531   0.923   3.276
 1100SOL    HW2 3317   2.534   0.762   3.296
 1101SOL     OW 3318   3.355   1.767   2.821
 1101SOL    HW1 3319   3.388   1.831   2.752
 1101SOL    HW2 3320   3.421   1.761   2.896
 1102SOL     OW 3321   2.578   0.565   3.570
 1102SOL    HW1 3322   2.597   0.630   3.644
 1102SOL    HW2 3323   2.638   0.485   3.579
 1103SOL     OW 3324   2.252   1.741   3.422
 1103SOL    HW1 3325   2.161   1.782   3.420
 1103SOL    HW2 3326   2.245   1.647   3.454
 1104SOL     OW 3327   3.536   0.883   3.116
 1104SOL    HW1 3328   3.509   0.794   3.079
 1104SOL    HW2 3329   3.537   0.951   3.043
 1105SOL     OW 3330   3.087   0.325   2.311
 1105SOL    HW1 3331   3.152   0.251   2.300
 1105SOL    HW2 3332   3.107   0.375   2.395
 1106SOL     OW 3333   2.456   0.745   2.514
 1106SOL    HW1 3334   2.506   0.830   2.495
 1106SOL    HW2 3335   2.368   0.747   2.466
 1107SOL     OW 3336   2.721   1.374   1.878
 1107SOL    HW1 3337   2.675   1.389   1.966
 1107SOL    HW2 3338   2.765   1.459   1.848
 1108SOL     OW 3339   2.523   1.790   2.815
 1108SOL    HW1 3340   2.477   1.878   2.802
 1108SOL    HW2 3341   2.622   1.802   2.808
 1109SOL     OW 3342   2.721   0.956   2.723
 1109SOL    HW1 3343   2.775   0.887   2.771
 1109SOL    HW2 3344   2.689   1.025   2.789
 1110SOL     OW 3345   2.945   0.984   1.949
 1110SOL    HW1 3346   2.922   1.037   1.867
 1110SOL    HW2 3347   3.026   0.928   1.930
 1111SOL     OW 3348   3.723   1.569   2.713
 1111SOL    HW1 3349   3.652   1.557   2.643
 1111SOL    HW2 3350   3.724   1.490   2.773
 1112SOL     OW 3351   1.941   1.240   2.515
 1112SOL    HW1 3352   1.940   1.193   2.603
 1112SOL    HW2 3353   2.023   1.212   2.464
 1113SOL     OW 3354   2.534   1.391   3.486
 1113SOL    HW1 3355   2.456   1.341   3.524
 1113SOL    HW2 3356   2.531   1.486   3.517
 1114SOL     OW 3357   3.686   0.192   3.089
 1114SOL    HW1 3358   3.682   0.102   3.133
 1114SOL    HW2 3359   3.689   0.181   2.990
 1115SOL     OW 3360   2.290   0.424   2.382
 1115SOL    HW1 3361   2.320   0.352   2.320
 1115SOL    HW2 3362   2.251   0.384   2.465
 1116SOL     OW 3363   2.179   0.547   3.142
 1116SOL    HW1 3364   2.217   0.488   3.214
 1116SOL    HW2 3365   2.219   0.521   3.054
 1117SOL     OW 3366   2.674   1.586   2.549
 1117SOL    HW1 3367   2.706   1.596   2.455
 1117SOL    HW2 3368   2.595   1.524   2.551
 1118SOL     OW 3369   3.286   0.214   2.974
 1118SOL    HW1 3370   3.338   0.149   3.029
 1118SOL    HW2 3371   3.237   0.277   3.035
 1119SOL     OW 3372   2.863   0.034   3.016
 1119SOL    HW1 3373   2.800  -0.038   2.985
 1119SOL    HW2 3374   2.956  -0.002   3.016
 1120SOL     OW 3375   2.632   1.330   2.163
 1120SOL    HW1 3376   2.586   1.243   2.180
 1120SOL    HW2 3377   2.723   1.327   2.204
 1121SOL     OW 3378   2.480   1.567   3.146
 1121SOL    HW1 3379   2.475   1.649   3.203
 1121SOL    HW2 3380   2.569   1.564   3.101
 1122SOL     OW 3381   3.214   0.052   2.030
 1122SOL    HW1 3382   3.249   0.011   1.946
 1122SOL    HW2 3383   3.124   0.014   2.050
 1123SOL     OW 3384   3.162   0.453   2.553
 1123SOL    HW1 3385   3.103   0.533   2.557
 1123SOL    HW2 3386   3.177   0.418   2.646
 1124SOL     OW 3387   3.455   0.221   2.744
 1124SOL    HW1 3388   3.371   0.220   2.798
 1124SOL    HW2 3389   3.457   0.304   2.688
 1125SOL     OW 3390   1.901   1.077   2.162
 1125SOL    HW1 3391   2.000   1.066   2.153
 1125SOL    HW2 3392   1.861   0.991   2.194
 1126SOL     OW 3393   2.737   1.646   2.199
 1126SOL    HW1 3394   2.660   1.611   2.145
 1126SOL    HW2 3395   2.705   1.717   2.261
 1127SOL     OW 3396   2.092   2.490   0.113
 1127SOL    HW1 3397   1.999   2.488   0.150
 1127SOL    HW2 3398   2.093   2.451   0.021
 1128SOL     OW 3399   2.087   2.137   0.996
 1128SOL    HW1 3400   2.122   2.120   1.088
 1128SOL    HW2 3401   1.999   2.092   0.984
 1129SOL     OW 3402   1.881   2.230   0.647
 1129SOL    HW1 3403   1.799   2.273   0.686
 1129SOL    HW2 3404   1.853   2.157   0.584
 1130SOL     OW 3405   2.431   3.137   1.165
 1130SOL    HW1 3406   2.338   3.130   1.128
 1130SOL    HW2 3407   2.442   3.226   1.209
 1131SOL     OW 3408   3.417   3.373   0.703
 1131SOL    HW1 3409   3.360   3.357   0.784
 1131SOL    HW2 3410   3.358   3.383   0.623
 1132SOL     OW 3411   2.997   2.565   0.717
 1132SOL    HW1 3412   3.054   2.643   0.692
 1132SOL    HW2 3413   2.937   2.591   0.793
 1133SOL     OW 3414   2.630   3.006   1.023
 1133SOL    HW1 3415   2.552   3.023   1.083
 1133SOL    HW2 3416   2.664   3.093   0.987
 1134SOL     OW 3417   2.712   2.660   1.823
 1134SOL    HW1 3418   2.708   2.736   1.888
 1134SOL    HW2 3419   2.734   2.696   1.732
 1135SOL     OW 3420   2.547   2.874   0.665
 1135SOL    HW1 3421   2.616   2.858   0.735
 1135SOL    HW2 3422   2.474   2.931   0.703
 1136SOL     OW 3423   2.548   3.023   1.803
 1136SOL    HW1 3424   2.608   3.102   1.817
 1136SOL    HW2 3425   2.462   3.054   1.762
 1137SOL     OW 3426   2.197   3.297   1.061
 1137SOL    HW1 3427   2.119   3.266   1.008
 1137SOL    HW2 3428   2.255   3.355   1.004
 1138SOL     OW 3429   3.322   3.367   1.339
 1138SOL    HW1 3430   3.346   3.461   1.365
 1138SOL    HW2 3431   3.306   3.313   1.421
 1139SOL     OW 3432   2.300   2.254   1.499
 1139SOL    HW1 3433   2.382   2.198   1.508
 1139SOL    HW2 3434   2.219   2.196   1.503
 1140SOL     OW 3435   2.989   3.203   1.690
 1140SOL    HW1 3436   3.036   3.203   1.778
 1140SOL    HW2 3437   2.941   3.116   1.679
 1141SOL     OW 3438   2.092   3.296   0.538
 1141SOL    HW1 3439   2.066   3.392   0.538
 1141SOL    HW2 3440   2.021   3.242   0.583
 1142SOL     OW 3441   2.102   2.953   0.886
 1142SOL    HW1 3442   2.116   2.869   0.938
 1142SOL    HW2 3443   2.047   3.017   0.941
 1143SOL     OW 3444   2.468   2.826   0.123
 1143SOL    HW1 3445   2.475   2.910   0.069
 1143SOL    HW2 3446   2.514   2.839   0.211
 1144SOL     OW 3447   3.456   1.976   1.480
 1144SOL    HW1 3448   3.438   2.043   1.408
 1144SOL    HW2 3449   3.453   2.022   1.569
 1145SOL     OW 3450   1.984   2.505   0.563
 1145SOL    HW1 3451   1.939   2.417   0.580
 1145SOL    HW2 3452   1.983   2.559   0.647
 1146SOL     OW 3453   1.889   3.458   0.117
 1146SOL    HW1 3454   1.870   3.362   0.138
 1146SOL    HW2 3455   1.856   3.516   0.192
 1147SOL     OW 3456   3.551   2.784   0.612
 1147SOL    HW1 3457   3.646   2.755   0.620
 1147SOL    HW2 3458   3.543   2.849   0.537
 1148SOL     OW 3459   1.975   2.599   1.597
 1148SOL    HW1 3460   2.063   2.586   1.642
 1148SOL    HW2 3461   1.962   2.696   1.575
 1149SOL     OW 3462   2.475   3.227   0.726
 1149SOL    HW1 3463   2.426   3.140   0.735
 1149SOL    HW2 3464   2.452   3.270   0.639
 1150SOL     OW 3465   3.155   3.090   1.423
 1150SOL    HW1 3466   3.192   3.017   1.365
 1150SOL    HW2 3467   3.207   3.095   1.508
 1151SOL     OW 3468   2.671   1.866   0.502
 1151SOL    HW1 3469   2.711   1.957   0.493
 1151SOL    HW2 3470   2.571   1.874   0.508
 1152SOL     OW 3471   2.059   2.838   1.264
 1152SOL    HW1 3472   2.148   2.793   1.250
 1152SOL    HW2 3473   1.986   2.773   1.245
 1153SOL     OW 3474   3.387   2.861   0.190
 1153SOL    HW1 3475   3.324   2.785   0.203
 1153SOL    HW2 3476   3.435   2.879   0.276
 1154SOL     OW 3477   2.179   2.113   1.801
 1154SOL    HW1 3478   2.250   2.184   1.807
 1154SOL    HW2 3479   2.091   2.152   1.829
 1155SOL     OW 3480   3.328   3.279   0.953
 1155SOL    HW1 3481   3.269   3.285   1.033
 1155SOL    HW2 3482   3.313   3.191   0.907
 1156SOL     OW 3483   3.529   3.576   0.572
 1156SOL    HW1 3484   3.488   3.553   0.484
 1156SOL    HW2 3485   3.511   3.502   0.637
 1157SOL     OW 3486   2.460   2.591   0.270
 1157SOL    HW1 3487   2.484   2.660   0.202
 1157SOL    HW2 3488   2.382   2.624   0.324
 1158SOL     OW 3489   3.143   2.207   0.944
 1158SOL    HW1 3490   3.057   2.157   0.931
 1158SOL    HW2 3491   3.205   2.153   1.000
 1159SOL     OW 3492   3.438   3.524   0.307
 1159SOL    HW1 3493   3.527   3.570   0.310
 1159SOL    HW2 3494   3.417   3.500   0.212
 1160SOL     OW 3495   2.669   2.467   1.465
 1160SOL    HW1 3496   2.622   2.464   1.554
 1160SOL    HW2 3497   2.618   2.412   1.399
 1161SOL     OW 3498   3.256   2.331   1.674
 1161SOL    HW1 3499   3.236   2.374   1.762
 1161SOL    HW2 3500   3.334   2.269   1.683
 1162SOL     OW 3501   2.835   2.752   1.572
 1162SOL    HW1 3502   2.881   2.668   1.543
 1162SOL    HW2 3503   2.779   2.786   1.497
 1163SOL     OW 3504   2.853   2.272   1.242
 1163SOL    HW1 3505   2.776   2.306   1.296
 1163SOL    HW2 3506   2.819   2.221   1.163
 1164SOL     OW 3507   2.903   2.563   0.429
 1164SOL    HW1 3508   2.929   2.559   0.525
 1164SOL    HW2 3509   2.818   2.512   0.415
 1165SOL     OW 3510   1.938   2.673   0.789
 1165SOL    HW1 3511   2.037   2.661   0.798
 1165SOL    HW2 3512   1.914   2.768   0.810
 1166SOL     OW 3513   2.727   2.210   0.195
 1166SOL    HW1 3514   2.786   2.273   0.146
 1166SOL    HW2 3515   2.746   2.116   0.166
 1167SOL     OW 3516   3.581   2.447   1.831
 1167SOL    HW1 3517   3.555   2.536   1.795
 1167SOL    HW2 3518   3.579   2.379   1.758
 1168SOL     OW 3519   3.224   3.006   0.545
 1168SOL    HW1 3520   3.307   2.977   0.497
 1168SOL    HW2 3521   3.175   3.073   0.489
 1169SOL     OW 3522   2.412   2.058   0.885
 1169SOL    HW1 3523   2.407   2.053   0.985
 1169SOL    HW2 3524   2.414   2.154   0.856
 1170SOL     OW 3525   2.870   3.318   0.477
 1170SOL    HW1 3526   2.824   3.390   0.425
 1170SOL    HW2 3527   2.866   3.338   0.575
 1171SOL     OW 3528   3.089   3.412   1.506
 1171SOL    HW1 3529   3.095   3.335   1.570
 1171SOL    HW2 3530   3.037   3.386   1.426
 1172SOL     OW 3531   2.183   2.805   0.242
 1172SOL    HW1 3532   2.265   2.844   0.200
 1172SOL    HW2 3533   2.156   2.723   0.193
 1173SOL     OW 3534   3.320   2.597   0.728
 1173SOL    HW1 3535   3.315   2.532   0.803
 1173SOL    HW2 3536   3.400   2.656   0.741
 1174SOL     OW 3537   2.323   3.128   1.727
 1174SOL    HW1 3538   2.273   3.129   1.641
 1174SOL    HW2 3539   2.260   3.110   1.803
 1175SOL     OW 3540   2.064   2.147   1.498
 1175SOL    HW1 3541   1.984   2.207   1.485
 1175SOL    HW2 3542   2.054   2.098   1.584
 1176SOL     OW 3543   3.262   1.969   0.426
 1176SOL    HW1 3544   3.238   1.932   0.336
 1176SOL    HW2 3545   3.361   1.985   0.430
 1177SOL     OW 3546   2.244   2.562   0.480
 1177SOL    HW1 3547   2.289   2.472   0.477
 1177SOL    HW2 3548   2.150   2.551   0.513
 1178SOL     OW 3549   3.409   2.084   1.729
 1178SOL    HW1 3550   3.404   2.121   1.821
 1178SOL    HW2 3551   3.337   2.015   1.717
 1179SOL     OW 3552   2.476   1.984   0.117
 1179SOL    HW1 3553   2.574   1.962   0.124
 1179SOL    HW2 3554   2.445   1.967   0.024
 1180SOL     OW 3555   2.643   2.126   1.749
 1180SOL    HW1 3556   2.710   2.065   1.792
 1180SOL    HW2 3557   2.570   2.145   1.814
 1181SOL     OW 3558   2.750   3.376   1.195
 1181SOL    HW1 3559   2.727   3.351   1.101
 1181SOL    HW2 3560   2.811   3.307   1.234
 1182SOL     OW 3561   3.213   2.452   1.433
 1182SOL    HW1 3562   3.241   2.409   1.518
 1182SOL    HW2 3563   3.238   2.548   1.434
 1183SOL     OW 3564   2.665   3.264   0.924
 1183SOL    HW1 3565   2.755   3.278   0.882
 1183SOL    HW2 3566   2.594   3.266   0.853
 1184SOL     OW 3567   2.784   2.365   0.899
 1184SOL    HW1 3568   2.759   2.356   0.803
 1184SOL    HW2 3569   2.832   2.283   0.930
 1185SOL     OW 3570   2.401   1.926   0.512
 1185SOL    HW1 3571   2.320   1.927   0.570
 1185SOL    HW2 3572   2.404   2.009   0.457
 1186SOL     OW 3573   3.296   3.050   0.041
 1186SOL    HW1 3574   3.328   2.974   0.098
 1186SOL    HW2 3575   3.204   3.077   0.071
 1187SOL     OW 3576   2.159   1.897   0.171
 1187SOL    HW1 3577   2.208   1.981   0.150
 1187SOL    HW2 3578   2.221   1.832   0.216
 1188SOL     OW 3579   2.797   2.098   0.480
 1188SOL    HW1 3580   2.749   2.139   0.402
 1188SOL    HW2 3581   2.896   2.096   0.461
 1189SOL     OW 3582   2.938   2.545   1.464
 1189SOL    HW1 3583   2.858   2.484   1.467
 1189SOL    HW2 3584   3.019   2.492   1.440
 1190SOL     OW 3585   3.089   3.432   0.793
 1190SOL    HW1 3586   3.110   3.506   0.728
 1190SOL    HW2 3587   3.157   3.432   0.866
 1191SOL     OW 3588   2.321   3.014   0.741
 1191SOL    HW1 3589   2.250   2.987   0.806
 1191SOL    HW2 3590   2.295   2.986   0.648
 1192SOL     OW 3591   2.894   2.411   0.016
 1192SOL    HW1 3592   2.853   2.493  -0.023
 1192SOL    HW2 3593   2.958   2.437   0.089
 1193SOL     OW 3594   1.940   2.418   1.386
 1193SOL    HW1 3595   2.032   2.417   1.345
 1193SOL    HW2 3596   1.934   2.492   1.453
 1194SOL     OW 3597   2.423   2.084   1.147
 1194SOL    HW1 3598   2.461   2.000   1.184
 1194SOL    HW2 3599   2.335   2.103   1.191
 1195SOL     OW 3600   2.728   2.316   0.642
 1195SOL    HW1 3601   2.696   2.388   0.580
 1195SOL    HW2 3602   2.752   2.235   0.589
 1196SOL     OW 3603   2.879   1.901   0.753
 1196SOL    HW1 3604   2.807   1.906   0.684
 1196SOL    HW2 3605   2.855   1.832   0.822
 1197SOL     OW 3606   3.291   3.035   0.867
 1197SOL    HW1 3607   3.236   2.951   0.860
 1197SOL    HW2 3608   3.317   3.064   0.775
 1198SOL     OW 3609   3.328   2.452   0.992
 1198SOL    HW1 3610   3.298   2.357   0.999
 1198SOL    HW2 3611   3.401   2.468   1.058
 1199SOL     OW 3612   3.719   2.695   0.377
 1199SOL    HW1 3613   3.761   2.631   0.441
 1199SOL    HW2 3614   3.681   2.644   0.299
 1200SOL     OW 3615   2.350   3.247   0.174
 1200SOL    HW1 3616   2.263   3.232   0.221
 1200SOL    HW2 3617   2.333   3.273   0.079
 1201SOL     OW 3618   3.252   2.437   0.078
 1201SOL    HW1 3619   3.198   2.416   0.159
 1201SOL    HW2 3620   3.343   2.396   0.087
 1202SOL     OW 3621   2.389   2.118   0.328
 1202SOL    HW1 3622   2.416   2.059   0.253
 1202SOL    HW2 3623   2.389   2.213   0.297
 1203SOL     OW 3624   2.926   3.209   1.340
 1203SOL    HW1 3625   2.846   3.186   1.395
 1203SOL    HW2 3626   3.009   3.183   1.389
 1204SOL     OW 3627   3.454   3.491   1.625
 1204SOL    HW1 3628   3.481   3.525   1.535
 1204SOL    HW2 3629   3.533   3.453   1.671
 1205SOL     OW 3630   2.973   3.057   1.100
 1205SOL    HW1 3631   2.933   3.101   1.181
 1205SOL    HW2 3632   2.932   3.094   1.017
 1206SOL     OW 3633   3.500   2.961   1.079
 1206SOL    HW1 3634   3.505   3.042   1.138
 1206SOL    HW2 3635   3.414   2.963   1.028
 1207SOL     OW 3636   2.777   1.951   1.402
 1207SOL    HW1 3637   2.802   1.931   1.307
 1207SOL    HW2 3638   2.849   2.007   1.444
 1208SOL     OW 3639   2.842   2.978   1.719
 1208SOL    HW1 3640   2.743   2.984   1.729
 1208SOL    HW2 3641   2.865   2.898   1.663
 1209SOL     OW 3642   2.567   2.912   0.368
 1209SOL    HW1 3643   2.553   2.919   0.467
 1209SOL    HW2 3644   2.651   2.861   0.350
 1210SOL     OW 3645   2.272   2.675   1.251
 1210SOL    HW1 3646   2.358   2.687   1.301
 1210SOL    HW2 3647   2.230   2.588   1.278
 1211SOL     OW 3648   3.136   2.248   1.262
 1211SOL    HW1 3649   3.157   2.322   1.326
 1211SOL    HW2 3650   3.047   2.265   1.219
 1212SOL     OW 3651   1.926   3.426   1.331
 1212SOL    HW1 3652   1.880   3.508   1.297
 1212SOL    HW2 3653   2.024   3.445   1.340
 1213SOL     OW 3654   2.229   2.962   0.501
 1213SOL    HW1 3655   2.222   3.045   0.445
 1213SOL    HW2 3656   2.233   2.882   0.441
 1214SOL     OW 3657   2.428   2.399   0.865
 1214SOL    HW1 3658   2.440   2.465   0.791
 1214SOL    HW2 3659   2.474   2.433   0.948
 1215SOL     OW 3660   3.114   3.210   0.388
 1215SOL    HW1 3661   3.164   3.287   0.428
 1215SOL    HW2 3662   3.019   3.212   0.420
 1216SOL     OW 3663   3.134   3.307   1.142
 1216SOL    HW1 3664   3.181   3.320   1.229
 1216SOL    HW2 3665   3.068   3.233   1.151
 1217SOL     OW 3666   3.444   2.501   0.472
 1217SOL    HW1 3667   3.413   2.562   0.545
 1217SOL    HW2 3668   3.494   2.553   0.403
 1218SOL     OW 3669   2.216   3.372   1.329
 1218SOL    HW1 3670   2.195   3.328   1.242
 1218SOL    HW2 3671   2.313   3.398   1.332
 1219SOL     OW 3672   2.264   2.613   1.598
 1219SOL    HW1 3673   2.332   2.668   1.551
 1219SOL    HW2 3674   2.304   2.525   1.625
 1220SOL     OW 3675   3.449   2.641   1.670
 1220SOL    HW1 3676   3.357   2.679   1.665
 1220SOL    HW2 3677   3.509   2.688   1.605
 1221SOL     OW 3678   2.875   1.967   1.770
 1221SOL    HW1 3679   2.881   2.052   1.718
 1221SOL    HW2 3680   2.907   1.891   1.713
 1222SOL     OW 3681   2.366   1.912   1.740
 1222SOL    HW1 3682   2.324   1.855   1.670
 1222SOL    HW2 3683   2.300   1.981   1.772
 1223SOL     OW 3684   2.435   2.732   1.029
 1223SOL    HW1 3685   2.479   2.821   1.020
 1223SOL    HW2 3686   2.372   2.732   1.106
 1224SOL     OW 3687   3.222   2.724   1.045
 1224SOL    HW1 3688   3.147   2.724   0.979
 1224SOL    HW2 3689   3.259   2.632   1.054
 1225SOL     OW 3690   3.071   2.387   0.275
 1225SOL    HW1 3691   3.084   2.303   0.329
 1225SOL    HW2 3692   3.042   2.461   0.335
 1226SOL     OW 3693   2.169   2.075   1.231
 1226SOL    HW1 3694   2.146   2.112   1.321
 1226SOL    HW2 3695   2.139   1.980   1.225
 1227SOL     OW 3696   1.899   3.172   1.282
 1227SOL    HW1 3697   1.952   3.123   1.350
 1227SOL    HW2 3698   1.921   3.270   1.287
 1228SOL     OW 3699   2.594   2.496   1.064
 1228SOL    HW1 3700   2.653   2.470   0.988
 1228SOL    HW2 3701   2.566   2.592   1.053
 1229SOL     OW 3702   2.169   1.925   0.618
 1229SOL    HW1 3703   2.158   2.019   0.651
 1229SOL    HW2 3704   2.164   1.862   0.695
 1230SOL     OW 3705   3.484   2.229   0.374
 1230SOL    HW1 3706   3.486   2.153   0.438
 1230SOL    HW2 3707   3.436   2.306   0.414
 1231SOL     OW 3708   2.885   2.628   0.966
 1231SOL    HW1 3709   2.900   2.649   1.062
 1231SOL    HW2 3710   2.855   2.533   0.957
 1232SOL     OW 3711   2.842   3.435   1.700
 1232SOL    HW1 3712   2.822   3.479   1.612
 1232SOL    HW2 3713   2.881   3.344   1.684
 1233SOL     OW 3714   2.212   2.760   1.804
 1233SOL    HW1 3715   2.288   2.804   1.852
 1233SOL    HW2 3716   2.247   2.713   1.722
 1234SOL     OW 3717   3.402   2.136   0.125
 1234SOL    HW1 3718   3.341   2.061   0.148
 1234SOL    HW2 3719   3.424   2.188   0.208
 1235SOL     OW 3720   3.165   2.700   0.042
 1235SOL    HW1 3721   3.199   2.607   0.057
 1235SOL    HW2 3722   3.183   2.727  -0.053
 1236SOL     OW 3723   2.930   3.195   0.849
 1236SOL    HW1 3724   2.937   3.111   0.794
 1236SOL    HW2 3725   2.992   3.264   0.813
 1237SOL     OW 3726   2.181   2.672   0.949
 1237SOL    HW1 3727   2.274   2.708   0.954
 1237SOL    HW2 3728   2.175   2.587   1.001
 1238SOL     OW 3729   2.201   2.371   1.006
 1238SOL    HW1 3730   2.149   2.288   0.989
 1238SOL    HW2 3731   2.278   2.376   0.942
 1239SOL     OW 3732   3.000   2.242   1.678
 1239SOL    HW1 3733   2.955   2.305   1.742
 1239SOL    HW2 3734   3.093   2.273   1.661
 1240SOL     OW 3735   3.022   2.069   1.477
 1240SOL    HW1 3736   3.022   2.133   1.554
 1240SOL    HW2 3737   3.050   2.117   1.394
 1241SOL     OW 3738   1.870   3.188   0.200
 1241SOL    HW1 3739   1.777   3.209   0.169
 1241SOL    HW2 3740   1.880   3.089   0.213
 1242SOL     OW 3741   2.366   3.430   0.910
 1242SOL    HW1 3742   2.432   3.504   0.919
 1242SOL    HW2 3743   2.410   3.351   0.868
 1243SOL     OW 3744   2.864   2.658   1.238
 1243SOL    HW1 3745   2.905   2.626   1.324
 1243SOL    HW2 3746   2.768   2.631   1.235
 1244SOL     OW 3747   1.902   2.406   1.114
 1244SOL    HW1 3748   1.987   2.373   1.073
 1244SOL    HW2 3749   1.915   2.421   1.212
 1245SOL     OW 3750   2.051   2.382   1.722
 1245SOL    HW1 3751   2.110   2.342   1.652
 1245SOL    HW2 3752   1.993   2.453   1.681
 1246SOL     OW 3753   3.231   2.812   1.660
 1246SOL    HW1 3754   3.270   2.901   1.680
 1246SOL    HW2 3755   3.241   2.792   1.563
 1247SOL     OW 3756   2.677   2.434   0.325
 1247SOL    HW1 3757   2.684   2.345   0.279
 1247SOL    HW2 3758   2.583   2.468   0.317
 1248SOL     OW 3759   2.114   3.426   1.744
 1248SOL    HW1 3760   2.084   3.483   1.820
 1248SOL    HW2 3761   2.107   3.329   1.770
 1249SOL     OW 3762   2.533   2.326   1.269
 1249SOL    HW1 3763   2.499   2.237   1.239
 1249SOL    HW2 3764   2.559   2.380   1.189
 1250SOL     OW 3765   2.335   2.362   0.191
 1250SOL    HW1 3766   2.396   2.442   0.195
 1250SOL    HW2 3767   2.240   2.393   0.198
 1251SOL     OW 3768   2.021   2.999   1.466
 1251SOL    HW1 3769   2.043   2.938   1.542
 1251SOL    HW2 3770   2.031   2.950   1.380
 1252SOL     OW 3771   3.209   2.921   1.234
 1252SOL    HW1 3772   3.233   2.858   1.160
 1252SOL    HW2 3773   3.119   2.961   1.216
 1253SOL     OW 3774   3.164   2.717   0.309
 1253SOL    HW1 3775   3.078   2.686   0.351
 1253SOL    HW2 3776   3.160   2.703   0.210
 1254SOL     OW 3777   3.114   3.593   1.128
 1254SOL    HW1 3778   3.198   3.598   1.074
 1254SOL    HW2 3779   3.091   3.497   1.146
 1255SOL     OW 3780   1.945   3.120   1.022
 1255SOL    HW1 3781   1.940   3.119   1.122
 1255SOL    HW2 3782   1.862   3.079   0.984
 1256SOL     OW 3783   2.765   1.948   0.133
 1256SOL    HW1 3784   2.816   1.949   0.047
 1256SOL    HW2 3785   2.821   1.906   0.204
 1257SOL     OW 3786   3.250   3.435   0.477
 1257SOL    HW1 3787   3.317   3.447   0.403
 1257SOL    HW2 3788   3.210   3.524   0.500
 1258SOL     OW 3789   1.992   3.656   1.851
 1258SOL    HW1 3790   1.951   3.582   1.904
 1258SOL    HW2 3791   2.056   3.707   1.909
 1259SOL     OW 3792   3.142   2.789   0.672
 1259SOL    HW1 3793   3.202   2.708   0.674
 1259SOL    HW2 3794   3.182   2.858   0.612
 1260SOL     OW 3795   2.692   3.135   1.422
 1260SOL    HW1 3796   2.687   3.168   1.517
 1260SOL    HW2 3797   2.606   3.154   1.376
 1261SOL     OW 3798   2.534   3.478   0.154
 1261SOL    HW1 3799   2.543   3.488   0.055
 1261SOL    HW2 3800   2.494   3.389   0.175
 1262SOL     OW 3801   2.125   2.188   0.720
 1262SOL    HW1 3802   2.046   2.239   0.686
 1262SOL    HW2 3803   2.116   2.173   0.818
 1263SOL     OW 3804   3.056   3.474   0.031
 1263SOL    HW1 3805   3.062   3.381   0.068
 1263SOL    HW2 3806   2.997   3.474  -0.049
 1264SOL     OW 3807   2.684   2.864   1.372
 1264SOL    HW1 3808   2.724   2.863   1.280
 1264SOL    HW2 3809   2.694   2.956   1.412
 1265SOL     OW 3810   2.778   2.772   0.291
 1265SOL    HW1 3811   2.841   2.810   0.223
 1265SOL    HW2 3812   2.818   2.689   0.330
 1266SOL     OW 3813   2.234   3.150   1.490
 1266SOL    HW1 3814   2.221   3.243   1.456
 1266SOL    HW2 3815   2.150   3.098   1.477
 1267SOL     OW 3816   2.901   2.960   0.696
 1267SOL    HW1 3817   2.831   2.913   0.750
 1267SOL    HW2 3818   2.960   2.892   0.653
 1268SOL     OW 3819   2.876   2.098   0.971
 1268SOL    HW1 3820   2.868   2.062   0.878
 1268SOL    HW2 3821   2.874   2.022   1.036
 1269SOL     OW 3822   2.452   3.349   0.491
 1269SOL    HW1 3823   2.494   3.291   0.421
 1269SOL    HW2 3824   2.408   3.428   0.447
 1270SOL     OW 3825   2.117   3.210   0.290
 1270SOL    HW1 3826   2.021   3.211   0.263
 1270SOL    HW2 3827   2.129   3.263   0.374
 1271SOL     OW 3828   1.967   2.875   1.726
 1271SOL    HW1 3829   1.890   2.842   1.780
 1271SOL    HW2 3830   2.052   2.845   1.768
 1272SOL     OW 3831   2.534   2.065   1.489
 1272SOL    HW1 3832   2.624   2.049   1.449
 1272SOL    HW2 3833   2.542   2.070   1.588
 1273SOL     OW 3834   1.937   2.207   0.033
 1273SOL    HW1 3835   1.845   2.179   0.004
 1273SOL    HW2 3836   1.968   2.284  -0.023
 1274SOL     OW 3837   3.302   2.718   1.398
 1274SOL    HW1 3838   3.245   2.770   1.335
 1274SOL    HW2 3839   3.398   2.730   1.374
 1275SOL     OW 3840   1.934   2.028   0.318
 1275SOL    HW1 3841   1.917   2.111   0.264
 1275SOL    HW2 3842   2.024   1.991   0.296
 1276SOL     OW 3843   3.045   3.197   0.119
 1276SOL    HW1 3844   2.946   3.186   0.121
 1276SOL    HW2 3845   3.079   3.212   0.212
 1277SOL     OW 3846   2.475   2.704   1.431
 1277SOL    HW1 3847   2.531   2.785   1.414
 1277SOL    HW2 3848   2.534   2.624   1.434
 1278SOL     OW 3849   2.578   2.427   1.708
 1278SOL    HW1 3850   2.597   2.492   1.782
 1278SOL    HW2 3851   2.638   2.347   1.717
 1279SOL     OW 3852   3.312   3.082   1.633
 1279SOL    HW1 3853   3.303   3.072   1.732
 1279SOL    HW2 3854   3.408   3.075   1.607
 1280SOL     OW 3855   3.536   2.745   1.254
 1280SOL    HW1 3856   3.509   2.656   1.217
 1280SOL    HW2 3857   3.537   2.813   1.181
 1281SOL     OW 3858   3.087   2.187   0.449
 1281SOL    HW1 3859   3.152   2.113   0.438
 1281SOL    HW2 3860   3.107   2.237   0.533
 1282SOL     OW 3861   2.456   2.607   0.652
 1282SOL    HW1 3862   2.506   2.692   0.633
 1282SOL    HW2 3863   2.368   2.609   0.604
 1283SOL     OW 3864   2.721   3.236   0.016
 1283SOL    HW1 3865   2.675   3.251   0.104
 1283SOL    HW2 3866   2.765   3.321  -0.014
 1284SOL     OW 3867   2.721   2.818   0.861
 1284SOL    HW1 3868   2.775   2.749   0.909
 1284SOL    HW2 3869   2.689   2.887   0.927
 1285SOL     OW 3870   2.945   2.846   0.087
 1285SOL    HW1 3871   2.922   2.899   0.005
 1285SOL    HW2 3872   3.026   2.790   0.068
 1286SOL     OW 3873   3.723   3.431   0.851
 1286SOL    HW1 3874   3.652   3.419   0.781
 1286SOL    HW2 3875   3.724   3.352   0.911
 1287SOL     OW 3876   2.083   3.176   1.844
 1287SOL    HW1 3877   2.018   3.103   1.823
 1287SOL    HW2 3878   2.087   3.190   1.942
 1288SOL     OW 3879   1.941   3.102   0.653
 1288SOL    HW1 3880   1.940   3.055   0.741
 1288SOL    HW2 3881   2.023   3.074   0.602
 1289SOL     OW 3882   2.534   3.253   1.624
 1289SOL    HW1 3883   2.456   3.203   1.662
 1289SOL    HW2 3884   2.531   3.348   1.655
 1290SOL     OW 3885   3.686   2.054   1.227
 1290SOL    HW1 3886   3.682   1.964   1.271
 1290SOL    HW2 3887   3.689   2.043   1.128
 1291SOL     OW 3888   2.290   2.286   0.520
 1291SOL    HW1 3889   2.320   2.214   0.458
 1291SOL    HW2 3890   2.251   2.246   0.603
 1292SOL     OW 3891   2.179   2.409   1.280
 1292SOL    HW1 3892   2.217   2.350   1.352
 1292SOL    HW2 3893   2.219   2.383   1.192
 1293SOL     OW 3894   2.674   3.448   0.687
 1293SOL    HW1 3895   2.706   3.458   0.593
 1293SOL    HW2 3896   2.595   3.386   0.689
 1294SOL     OW 3897   3.286   2.076   1.112
 1294SOL    HW1 3898   3.338   2.011   1.167
 1294SOL    HW2 3899   3.237   2.139   1.173
 1295SOL     OW 3900   2.863   1.896   1.154
 1295SOL    HW1 3901   2.800   1.824   1.123
 1295SOL    HW2 3902   2.956   1.860   1.154
 1296SOL     OW 3903   2.632   3.192   0.301
 1296SOL    HW1 3904   2.586   3.105   0.318
 1296SOL    HW2 3905   2.723   3.189   0.342
 1297SOL     OW 3906   2.480   3.429   1.284
 1297SOL    HW1 3907   2.475   3.511   1.341
 1297SOL    HW2 3908   2.569   3.426   1.239
 1298SOL     OW 3909   3.214   1.914   0.168
 1298SOL    HW1 3910   3.249   1.873   0.084
 1298SOL    HW2 3911   3.124   1.876   0.188
 1299SOL     OW 3912   3.162   2.315   0.691
 1299SOL    HW1 3913   3.103   2.395   0.695
 1299SOL    HW2 3914   3.177   2.280   0.784
 1300SOL     OW 3915   3.455   2.083   0.882
 1300SOL    HW1 3916   3.371   2.082   0.936
 1300SOL    HW2 3917   3.457   2.166   0.826
 1301SOL     OW 3918   1.901   2.939   0.300
 1301SOL    HW1 3919   2.000   2.928   0.291
 1301SOL    HW2 3920   1.861   2.853   0.332
 1302SOL     OW 3921   2.092   2.490   1.975
 1302SOL    HW1 3922   1.999   2.488   2.012
 1302SOL    HW2 3923   2.093   2.451   1.883
 1303SOL     OW 3924   2.087   2.137   2.858
 1303SOL    HW1 3925   2.122   2.120   2.950
 1303SOL    HW2 3926   1.999   2.092   2.846
 1304SOL     OW 3927   1.881   2.230   2.509
 1304SOL    HW1 3928   1.799   2.273   2.548
 1304SOL    HW2 3929   1.853   2.157   2.446
 1305SOL     OW 3930   2.431   3.137   3.027
 1305SOL    HW1 3931   2.338   3.130   2.990
 1305SOL    HW2 3932   2.442   3.226   3.071
 1306SOL     OW 3933   3.417   3.373   2.565
 1306SOL    HW1 3934   3.360   3.357   2.646
 1306SOL    HW2 3935   3.358   3.383   2.485
 1307SOL     OW 3936   2.997   2.565   2.579
 1307SOL    HW1 3937   3.054   2.643   2.554
 1307SOL    HW2 3938   2.937   2.591   2.655
 1308SOL     OW 3939   2.630   3.006   2.885
 1308SOL    HW1 3940   2.552   3.023   2.945
 1308SOL    HW2 3941   2.664   3.093   2.849
 1309SOL     OW 3942   2.547   2.874   2.527
 1309SOL    HW1 3943   2.616   2.858   2.597
 1309SOL    HW2 3944   2.474   2.931   2.565
 1310SOL     OW 3945   2.197   3.297   2.923
 1310SOL    HW1 3946   2.119   3.266   2.870
 1310SOL    HW2 3947   2.255   3.355   2.866
 1311SOL     OW 3948   3.322   3.367   3.201
 1311SOL    HW1 3949   3.346   3.461   3.227
 1311SOL    HW2 3950   3.306   3.313   3.283
 1312SOL     OW 3951   2.300   2.254   3.361
 1312SOL    HW1 3952   2.382   2.198   3.370
 1312SOL    HW2 3953   2.219   2.196   3.365
 1313SOL     OW 3954   2.092   3.296   2.400
 1313SOL    HW1 3955   2.066   3.392   2.400
 1313SOL    HW2 3956   2.021   3.242   2.445
 1314SOL     OW 3957   2.102   2.953   2.748
 1314SOL    HW1 3958   2.116   2.869   2.800
 1314SOL    HW2 3959   2.047   3.017   2.803
 1315SOL     OW 3960   2.468   2.826   1.985
 1315SOL    HW1 3961   2.475   2.910   1.931
 1315SOL    HW2 3962   2.514   2.839   2.073
 1316SOL     OW 3963   3.456   1.976   3.342
 1316SOL    HW1 3964   3.438   2.043   3.270
 1316SOL    HW2 3965   3.453   2.022   3.431
 1317SOL     OW 3966   1.984   2.505   2.425
 1317SOL    HW1 3967   1.939   2.417   2.442
 1317SOL    HW2 3968   1.983   2.559   2.509
 1318SOL     OW 3969   1.889   3.458   1.979
 1318SOL    HW1 3970   1.870   3.362   2.000
 1318SOL    HW2 3971   1.856   3.516   2.054
 1319SOL     OW 3972   3.551   2.784   2.474
 1319SOL    HW1 3973   3.646   2.755   2.482
 1319SOL    HW2 3974   3.543   2.849   2.399
 1320SOL     OW 3975   1.975   2.599   3.459
 1320SOL    HW1 3976   2.063   2.586   3.504
 1320SOL    HW2 3977   1.962   2.696   3.437
 1321SOL     OW 3978   2.475   3.227   2.588
 1321SOL    HW1 3979   2.426   3.140   2.597
 1321SOL    HW2 3980   2.452   3.270   2.501
 1322SOL     OW 3981   3.155   3.090   3.285
 1322SOL    HW1 3982   3.192   3.017   3.227
 1322SOL    HW2 3983   3.207   3.095   3.370
 1323SOL     OW 3984   2.671   1.866   2.364
 1323SOL    HW1 3985   2.711   1.957   2.355
 1323SOL    HW2 3986   2.571   1.874   2.370
 1324SOL     OW 3987   2.059   2.838   3.126
 1324SOL    HW1 3988   2.148   2.793   3.112
 1324SOL    HW2 3989   1.986   2.773   3.107
 1325SOL     OW 3990   3.387   2.861   2.052
 1325SOL    HW1 3991   3.324   2.785   2.065
 1325SOL    HW2 3992   3.435   2.879   2.138
 1326SOL     OW 3993   3.328   3.279   2.815
 1326SOL    HW1 3994   3.269   3.285   2.895
 1326SOL    HW2 3995   3.313   3.191   2.769
 1327SOL     OW 3996   3.529   3.576   2.434
 1327SOL    HW1 3997   3.488   3.553   2.346
 1327SOL    HW2 3998   3.511   3.502   2.499
 1328SOL     OW 3999   2.460   2.591   2.132
 1328SOL    HW1 4000   2.484   2.660   2.064
 1328SOL    HW2 4001   2.382   2.624   2.186
 1329SOL     OW 4002   3.143   2.207   2.806
 1329SOL    HW1 4003   3.057   2.157   2.793
 1329SOL    HW2 4004   3.205   2.153   2.862
 1330SOL     OW 4005   3.438   3.524   2.169
 1330SOL    HW1 4006   3.527   3.570   2.172
 1330SOL    HW2 4007   3.417   3.500   2.074
 1331SOL     OW 4008   2.669   2.467   3.327
 1331SOL    HW1 4009   2.622   2.464   3.416
 1331SOL    HW2 4010   2.618   2.412   3.261
 1332SOL     OW 4011   2.835   2.752   3.434
 1332SOL    HW1 4012   2.881   2.668   3.405
 1332SOL    HW2 4013   2.779   2.786   3.359
 1333SOL     OW 4014   2.853   2.272   3.104
 1333SOL    HW1 4015   2.776   2.306   3.158
 1333SOL    HW2 4016   2.819   2.221   3.025
 1334SOL     OW 4017   2.903   2.563   2.291
 1334SOL    HW1 4018   2.929   2.559   2.387
 1334SOL    HW2 4019   2.818   2.512   2.277
 1335SOL     OW 4020   1.938   2.673   2.651
 1335SOL    HW1 4021   2.037   2.661   2.660
 1335SOL    HW2 4022   1.914   2.768   2.672
 1336SOL     OW 4023   2.727   2.210   2.057
 1336SOL    HW1 4024   2.786   2.273   2.008
 1336SOL    HW2 4025   2.746   2.116   2.028
 1337SOL     OW 4026   3.224   3.006   2.407
 1337SOL    HW1 4027   3.307   2.977   2.359
 1337SOL    HW2 4028   3.175   3.073   2.351
 1338SOL     OW 4029   2.412   2.058   2.747
 1338SOL    HW1 4030   2.407   2.053   2.847
 1338SOL    HW2 4031   2.414   2.154   2.718
 1339SOL     OW 4032   2.870   3.318   2.339
 1339SOL    HW1 4033   2.824   3.390   2.287
 1339SOL    HW2 4034   2.866   3.338   2.437
 1340SOL     OW 4035   3.089   3.412   3.368
 1340SOL    HW1 4036   3.095   3.335   3.432
 1340SOL    HW2 4037   3.037   3.386   3.288
 1341SOL     OW 4038   2.183   2.805   2.104
 1341SOL    HW1 4039   2.265   2.844   2.062
 1341SOL    HW2 4040   2.156   2.723   2.055
 1342SOL     OW 4041   3.320   2.597   2.590
 1342SOL    HW1 4042   3.315   2.532   2.665
 1342SOL    HW2 4043   3.400   2.656   2.603
 1343SOL     OW 4044   2.323   3.128   3.589
 1343SOL    HW1 4045   2.273   3.129   3.503
 1343SOL    HW2 4046   2.260   3.110   3.665
 1344SOL     OW 4047   2.064   2.147   3.360
 1344SOL    HW1 4048   1.984   2.207   3.347
 1344SOL    HW2 4049   2.054   2.098   3.446
 1345SOL     OW 4050   3.262   1.969   2.288
 1345SOL    HW1 4051   3.238   1.932   2.198
 1345SOL    HW2 4052   3.361   1.985   2.292
 1346SOL     OW 4053   2.244   2.562   2.342
 1346SOL    HW1 4054   2.289   2.472   2.339
 1346SOL    HW2 4055   2.150   2.551   2.375
 1347SOL     OW 4056   2.476   1.984   1.979
 1347SOL    HW1 4057   2.574   1.962   1.986
 1347SOL    HW2 4058   2.445   1.967   1.886
 1348SOL     OW 4059   2.750   3.376   3.057
 1348SOL    HW1 4060   2.727   3.351   2.963
 1348SOL    HW2 4061   2.811   3.307   3.096
 1349SOL     OW 4062   3.213   2.452   3.295
 1349SOL    HW1 4063   3.241   2.409   3.380
 1349SOL    HW2 4064   3.238   2.548   3.296
 1350SOL     OW 4065   2.665   3.264   2.786
 1350SOL    HW1 4066   2.755   3.278   2.744
 1350SOL    HW2 4067   2.594   3.266   2.715
 1351SOL     OW 4068   2.784   2.365   2.761
 1351SOL    HW1 4069   2.759   2.356   2.665
 1351SOL    HW2 4070   2.832   2.283   2.792
 1352SOL     OW 4071   2.401   1.926   2.374
 1352SOL    HW1 4072   2.320   1.927   2.432
 1352SOL    HW2 4073   2.404   2.009   2.319
 1353SOL     OW 4074   3.296   3.050   1.903
 1353SOL    HW1 4075   3.328   2.974   1.960
 1353SOL    HW2 4076   3.204   3.077   1.933
 1354SOL     OW 4077   2.159   1.897   2.033
 1354SOL    HW1 4078   2.208   1.981   2.012
 1354SOL    HW2 4079   2.221   1.832   2.078
 1355SOL     OW 4080   2.797   2.098   2.342
 1355SOL    HW1 4081   2.749   2.139   2.264
 1355SOL    HW2 4082   2.896   2.096   2.323
 1356SOL     OW 4083   2.938   2.545   3.326
 1356SOL    HW1 4084   2.858   2.484   3.329
 1356SOL    HW2 4085   3.019   2.492   3.302
 1357SOL     OW 4086   3.089   3.432   2.655
 1357SOL    HW1 4087   3.110   3.506   2.590
 1357SOL    HW2 4088   3.157   3.432   2.728
 1358SOL     OW 4089   2.321   3.014   2.603
 1358SOL    HW1 4090   2.250   2.987   2.668
 1358SOL    HW2 4091   2.295   2.986   2.510
 1359SOL     OW 4092   2.894   2.411   1.878
 1359SOL    HW1 4093   2.853   2.493   1.839
 1359SOL    HW2 4094   2.958   2.437   1.951
 1360SOL     OW 4095   1.940   2.418   3.248
 1360SOL    HW1 4096   2.032   2.417   3.207
 1360SOL    HW2 4097   1.934   2.492   3.315
 1361SOL     OW 4098   2.423   2.084   3.009
 1361SOL    HW1 4099   2.461   2.000   3.046
 1361SOL    HW2 4100   2.335   2.103   3.053
 1362SOL     OW 4101   2.728   2.316   2.504
 1362SOL    HW1 4102   2.696   2.388   2.442
 1362SOL    HW2 4103   2.752   2.235   2.451
 1363SOL     OW 4104   2.879   1.901   2.615
 1363SOL    HW1 4105   2.807   1.906   2.546
 1363SOL    HW2 4106   2.855   1.832   2.684
 1364SOL     OW 4107   3.291   3.035   2.729
 1364SOL    HW1 4108   3.236   2.951   2.722
 1364SOL    HW2 4109   3.317   3.064   2.637
 1365SOL     OW 4110   3.328   2.452   2.854
 1365SOL    HW1 4111   3.298   2.357   2.861
 1365SOL    HW2 4112   3.401   2.468   2.920
 1366SOL     OW 4113   3.719   2.695   2.239
 1366SOL    HW1 4114   3.761   2.631   2.303
 1366SOL    HW2 4115   3.681   2.644   2.161
 1367SOL     OW 4116   2.350   3.247   2.036
 1367SOL    HW1 4117   2.263   3.232   2.083
 1367SOL    HW2 4118   2.333   3.273   1.941
 1368SOL     OW 4119   3.252   2.437   1.940
 1368SOL    HW1 4120   3.198   2.416   2.021
 1368SOL    HW2 4121   3.343   2.396   1.949
 1369SOL     OW 4122   2.389   2.118   2.190
 1369SOL    HW1 4123   2.416   2.059   2.115
 1369SOL    HW2 4124   2.389   2.213   2.159
 1370SOL     OW 4125   2.926   3.209   3.202
 1370SOL    HW1 4126   2.846   3.186   3.257
 1370SOL    HW2 4127   3.009   3.183   3.251
 1371SOL     OW 4128   3.454   3.491   3.487
 1371SOL    HW1 4129   3.481   3.525   3.397
 1371SOL    HW2 4130   3.533   3.453   3.533
 1372SOL     OW 4131   2.973   3.057   2.962
 1372SOL    HW1 4132   2.933   3.101   3.043
 1372SOL    HW2 4133   2.932   3.094   2.879
 1373SOL     OW 4134   3.500   2.961   2.941
 1373SOL    HW1 4135   3.505   3.042   3.000
 1373SOL    HW2 4136   3.414   2.963   2.890
 1374SOL     OW 4137   2.777   1.951   3.264
 1374SOL    HW1 4138   2.802   1.931   3.169
 1374SOL    HW2 4139   2.849   2.007   3.306
 1375SOL     OW 4140   2.567   2.912   2.230
 1375SOL    HW1 4141   2.553   2.919   2.329
 1375SOL    HW2 4142   2.651   2.861   2.212
 1376SOL     OW 4143   2.272   2.675   3.113
 1376SOL    HW1 4144   2.358   2.687   3.163
 1376SOL    HW2 4145   2.230   2.588   3.140
 1377SOL     OW 4146   3.136   2.248   3.124
 1377SOL    HW1 4147   3.157   2.322   3.188
 1377SOL    HW2 4148   3.047   2.265   3.081
 1378SOL     OW 4149   1.926   3.426   3.193
 1378SOL    HW1 4150   1.880   3.508   3.159
 1378SOL    HW2 4151   2.024   3.445   3.202
 1379SOL     OW 4152   2.229   2.962   2.363
 1379SOL    HW1 4153   2.222   3.045   2.307
 1379SOL    HW2 4154   2.233   2.882   2.303
 1380SOL     OW 4155   2.428   2.399   2.727
 1380SOL    HW1 4156   2.440   2.465   2.653
 1380SOL    HW2 4157   2.474   2.433   2.810
 1381SOL     OW 4158   3.114   3.210   2.250
 1381SOL    HW1 4159   3.164   3.287   2.290
 1381SOL    HW2 4160   3.019   3.212   2.282
 1382SOL     OW 4161   3.134   3.307   3.004
 1382SOL    HW1 4162   3.181   3.320   3.091
 1382SOL    HW2 4163   3.068   3.233   3.013
 1383SOL     OW 4164   3.444   2.501   2.334
 1383SOL    HW1 4165   3.413   2.562   2.407
 1383SOL    HW2 4166   3.494   2.553   2.265
 1384SOL     OW 4167   2.216   3.372   3.191
 1384SOL    HW1 4168   2.195   3.328   3.104
 1384SOL    HW2 4169   2.313   3.398   3.194
 1385SOL     OW 4170   2.264   2.613   3.460
 1385SOL    HW1 4171   2.332   2.668   3.413
 1385SOL    HW2 4172   2.304   2.525   3.487
 1386SOL     OW 4173   3.449   2.641   3.532
 1386SOL    HW1 4174   3.357   2.679   3.527
 1386SOL    HW2 4175   3.509   2.688   3.467
 1387SOL     OW 4176   2.435   2.732   2.891
 1387SOL    HW1 4177   2.479   2.821   2.882
 1387SOL    HW2 4178   2.372   2.732   2.968
 1388SOL     OW 4179   3.222   2.724   2.907
 1388SOL    HW1 4180   3.147   2.724   2.841
 1388SOL    HW2 4181   3.259   2.632   2.916
 1389SOL     OW 4182   3.071   2.387   2.137
 1389SOL    HW1 4183   3.084   2.303   2.191
 1389SOL    HW2 4184   3.042   2.461   2.197
 1390SOL     OW 4185   2.169   2.075   3.093
 1390SOL    HW1 4186   2.146   2.112   3.183
 1390SOL    HW2 4187   2.139   1.980   3.087
 1391SOL     OW 4188   1.899   3.172   3.144
 1391SOL    HW1 4189   1.952   3.123   3.212
 1391SOL    HW2 4190   1.921   3.270   3.149
 1392SOL     OW 4191   2.594   2.496   2.926
 1392SOL    HW1 4192   2.653   2.470   2.850
 1392SOL    HW2 4193   2.566   2.592   2.915
 1393SOL     OW 4194   2.169   1.925   2.480
 1393SOL    HW1 4195   2.158   2.019   2.513
 1393SOL    HW2 4196   2.164   1.862   2.557
 1394SOL     OW 4197   3.484   2.229   2.236
 1394SOL    HW1 4198   3.486   2.153   2.300
 1394SOL    HW2 4199   3.436   2.306   2.276
 1395SOL     OW 4200   2.885   2.628   2.828
 1395SOL    HW1 4201   2.900   2.649   2.924
 1395SOL    HW2 4202   2.855   2.533   2.819
 1396SOL     OW 4203   3.402   2.136   1.987
 1396SOL    HW1 4204   3.341   2.061   2.010
 1396SOL    HW2 4205   3.424   2.188   2.070
 1397SOL     OW 4206   3.165   2.700   1.904
 1397SOL    HW1 4207   3.199   2.607   1.919
 1397SOL    HW2 4208   3.183   2.727   1.809
 1398SOL     OW 4209   2.930   3.195   2.711
 1398SOL    HW1 4210   2.937   3.111   2.656
 1398SOL    HW2 4211   2.992   3.264   2.675
 1399SOL     OW 4212   2.181   2.672   2.811
 1399SOL    HW1 4213   2.274   2.708   2.816
 1399SOL    HW2 4214   2.175   2.587   2.863
 1400SOL     OW 4215   2.201   2.371   2.868
 1400SOL    HW1 4216   2.149   2.288   2.851
 1400SOL    HW2 4217   2.278   2.376   2.804
 1401SOL     OW 4218   3.022   2.069   3.339
 1401SOL    HW1 4219   3.022   2.133   3.416
 1401SOL    HW2 4220   3.050   2.117   3.256
 1402SOL     OW 4221   1.870   3.188   2.062
 1402SOL    HW1 4222   1.777   3.209   2.031
 1402SOL    HW2 4223   1.880   3.089   2.075
 1403SOL     OW 4224   2.366   3.430   2.772
 1403SOL    HW1 4225   2.432   3.504   2.781
 1403SOL    HW2 4226   2.410   3.351   2.730
 1404SOL     OW 4227   2.864   2.658   3.100
 1404SOL    HW1 4228   2.905   2.626   3.186
 1404SOL    HW2 4229   2.768   2.631   3.097
 1405SOL     OW 4230   1.902   2.406   2.976
 1405SOL    HW1 4231   1.987   2.373   2.935
 1405SOL    HW2 4232   1.915   2.421   3.074
 1406SOL     OW 4233   2.677   2.434   2.187
 1406SOL    HW1 4234   2.684   2.345   2.141
 1406SOL    HW2 4235   2.583   2.468   2.179
 1407SOL     OW 4236   2.114   3.426   3.606
 1407SOL    HW1 4237   2.084   3.483   3.682
 1407SOL    HW2 4238   2.107   3.329   3.632
 1408SOL     OW 4239   2.533   2.326   3.131
 1408SOL    HW1 4240   2.499   2.237   3.101
 1408SOL    HW2 4241   2.559   2.380   3.051
 1409SOL     OW 4242   2.335   2.362   2.053
 1409SOL    HW1 4243   2.396   2.442   2.057
 1409SOL    HW2 4244   2.240   2.393   2.060
 1410SOL     OW 4245   2.021   2.999   3.328
 1410SOL    HW1 4246   2.043   2.938   3.404
 1410SOL    HW2 4247   2.031   2.950   3.242
 1411SOL     OW 4248   3.209   2.921   3.096
 1411SOL    HW1 4249   3.233   2.858   3.022
 1411SOL    HW2 4250   3.119   2.961   3.078
 1412SOL     OW 4251   3.164   2.717   2.171
 1412SOL    HW1 4252   3.078   2.686   2.213
 1412SOL    HW2 4253   3.160   2.703   2.072
 1413SOL     OW 4254   3.114   3.593   2.990
 1413SOL    HW1 4255   3.198   3.598   2.936
 1413SOL    HW2 4256   3.091   3.497   3.008
 1414SOL     OW 4257   1.945   3.120   2.884
 1414SOL    HW1 4258   1.940   3.119   2.984
 1414SOL    HW2 4259   1.862   3.079   2.846
 1415SOL     OW 4260   3.250   3.435   2.339
 1415SOL    HW1 4261   3.317   3.447   2.265
 1415SOL    HW2 4262   3.210   3.524   2.362
 1416SOL     OW 4263   3.142   2.789   2.534
 1416SOL    HW1 4264   3.202   2.708   2.536
 1416SOL    HW2 4265   3.182   2.858   2.474
 1417SOL     OW 4266   2.692   3.135   3.284
 1417SOL    HW1 4267   2.687   3.168   3.379
 1417SOL    HW2 4268   2.606   3.154   3.238
 1418SOL     OW 4269   2.534   3.478   2.016
 1418SOL    HW1 4270   2.543   3.488   1.917
 1418SOL    HW2 4271   2.494   3.389   2.037
 1419SOL     OW 4272   2.125   2.188   2.582
 1419SOL    HW1 4273   2.046   2.239   2.548
 1419SOL    HW2 4274   2.116   2.173   2.680
 1420SOL     OW 4275   3.056   3.474   1.893
 1420SOL    HW1 4276   3.062   3.381   1.930
 1420SOL    HW2 4277   2.997   3.474   1.813
 1421SOL     OW 4278   2.684   2.864   3.234
 1421SOL    HW1 4279   2.724   2.863   3.142
 1421SOL    HW2 4280   2.694   2.956   3.274
 1422SOL     OW 4281   2.778   2.772   2.153
 1422SOL    HW1 4282   2.841   2.810   2.085
 1422SOL    HW2 4283   2.818   2.689   2.192
 1423SOL     OW 4284   2.234   3.150   3.352
 1423SOL    HW1 4285   2.221   3.243   3.318
 1423SOL    HW2 4286   2.150   3.098   3.339
 1424SOL     OW 4287   2.901   2.960   2.558
 1424SOL    HW1 4288   2.831   2.913   2.612
 1424SOL    HW2 4289   2.960   2.892   2.515
 1425SOL     OW 4290   2.876   2.098   2.833
 1425SOL    HW1 4291   2.868   2.062   2.740
 1425SOL    HW2 4292   2.874   2.022   2.898
 1426SOL     OW 4293   2.452   3.349   2.353
 1426SOL    HW1 4294   2.494   3.291   2.283
 1426SOL    HW2 4295   2.408   3.428   2.309
 1427SOL     OW 4296   2.117   3.210   2.152
 1427SOL    HW1 4297   2.021   3.211   2.125
 1427SOL    HW2 4298   2.129   3.263   2.236
 1428SOL     OW 4299   1.967   2.875   3.588
 1428SOL    HW1 4300   1.890   2.842   3.642
 1428SOL    HW2 4301   2.052   2.845   3.630
 1429SOL     OW 4302   2.534   2.065   3.351
 1429SOL    HW1 4303   2.624   2.049   3.311
 1429SOL    HW2 4304   2.542   2.070   3.450
 1430SOL     OW 4305   1.937   2.207   1.895
 1430SOL    HW1 4306   1.845   2.179   1.866
 1430SOL    HW2 4307   1.968   2.284   1.839
 1431SOL     OW 4308   3.302   2.718   3.260
 1431SOL    HW1 4309   3.245   2.770   3.197
 1431SOL    HW2 4310   3.398   2.730   3.236
 1432SOL     OW 4311   1.934   2.028   2.180
 1432SOL    HW1 4312   1.917   2.111   2.126
 1432SOL    HW2 4313   2.024   1.991   2.158
 1433SOL     OW 4314   3.045   3.197   1.981
 1433SOL    HW1 4315   2.946   3.186   1.983
 1433SOL    HW2 4316   3.079   3.212   2.074
 1434SOL     OW 4317   2.475   2.704   3.293
 1434SOL    HW1 4318   2.531   2.785   3.276
 1434SOL    HW2 4319   2.534   2.624   3.296
 1435SOL     OW 4320   2.578   2.427   3.570
 1435SOL    HW1 4321   2.597   2.492   3.644
 1435SOL    HW2 4322   2.638   2.347   3.579
 1436SOL     OW 4323   2.252   3.603   3.422
 1436SOL    HW1 4324   2.161   3.644   3.420
 1436SOL    HW2 4325   2.245   3.509   3.454
 1437SOL     OW 4326   3.536   2.745   3.116
 1437SOL    HW1 4327   3.509   2.656   3.079
 1437SOL    HW2 4328   3.537   2.813   3.043
 1438SOL     OW 4329   3.087   2.187   2.311
 1438SOL    HW1 4330   3.152   2.113   2.300
 1438SOL    HW2 4331   3.107   2.237   2.395
 1439SOL     OW 4332   2.456   2.607   2.514
 1439SOL    HW1 4333   2.506   2.692   2.495
 1439SOL    HW2 4334   2.368   2.609   2.466
 1440SOL     OW 4335   2.721   3.236   1.878
 1440SOL    HW1 4336   2.675   3.251   1.966
 1440SOL    HW2 4337   2.765   3.321   1.848
 1441SOL     OW 4338   2.721   2.818   2.723
 1441SOL    HW1 4339   2.775   2.749   2.771
 1441SOL    HW2 4340   2.689   2.887   2.789
 1442SOL     OW 4341   2.945   2.846   1.949
 1442SOL    HW1 4342   2.922   2.899   1.867
 1442SOL    HW2 4343   3.026   2.790   1.930
 1443SOL     OW 4344   3.723   3.431   2.713
 1443SOL    HW1 4345   3.652   3.419   2.643
 1443SOL    HW2 4346   3.724   3.352   2.773
 1444SOL     OW 4347   1.941   3.102   2.515
 1444SOL    HW1 4348   1.940   3.055   2.603
 1444SOL    HW2 4349   2.023   3.074   2.464
 1445SOL     OW 4350   2.534   3.253   3.486
 1445SOL    HW1 4351   2.456   3.203   3.524
 1445SOL    HW2 4352   2.531   3.348   3.517
 1446SOL     OW 4353   3.686   2.054   3.089
 1446SOL    HW1 4354   3.682   1.964   3.133
 1446SOL    HW2 4355   3.689   2.043   2.990
 1447SOL     OW 4356   2.290   2.286   2.382
 1447SOL    HW1 4357   2.320   2.214   2.320
 1447SOL    HW2 4358   2.251   2.246   2.465
 1448SOL     OW 4359   2.179   2.409   3.142
 1448SOL    HW1 4360   2.217   2.350   3.214
 1448SOL    HW2 4361   2.219   2.383   3.054
 1449SOL     OW 4362   2.674   3.448   2.549
 1449SOL    HW1 4363   2.706   3.458   2.455
 1449SOL    HW2 4364   2.595   3.386   2.551
 1450SOL     OW 4365   3.286   2.076   2.974
 1450SOL    HW1 4366   3.338   2.011   3.029
 1450SOL    HW2 4367   3.237   2.139   3.035
 1451SOL     OW 4368   2.863   1.896   3.016
 1451SOL    HW1 4369   2.800   1.824   2.985
 1451SOL    HW2 4370   2.956   1.860   3.016
 1452SOL     OW 4371   2.632   3.192   2.163
 1452SOL    HW1 4372   2.586   3.105   2.180
 1452SOL    HW2 4373   2.723   3.189   2.204
 1453SOL     OW 4374   2.480   3.429   3.146
 1453SOL    HW1 4375   2.475   3.511   3.203
 1453SOL    HW2 4376   2.569   3.426   3.101
 1454SOL     OW 4377   3.214   1.914   2.030
 1454SOL    HW1 4378   3.249   1.873   1.946
 1454SOL    HW2 4379   3.124   1.876   2.050
 1455SOL     OW 4380   3.162   2.315   2.553
 1455SOL    HW1 4381   3.103   2.395   2.557
 1455SOL    HW2 4382   3.177   2.280   2.646
 1456SOL     OW 4383   3.455   2.083   2.744
 1456SOL    HW1 4384   3.371   2.082   2.798
 1456SOL    HW2 4385   3.457   2.166   2.688
 1457SOL     OW 4386   1.901   2.939   2.162
 1457SOL    HW1 4387   2.000   2.928   2.153
 1457SOL    HW2 4388   1.861   2.853   2.194
 1458H2O2    O1 4389   2.306   2.831   0.637
 1458H2O2    O2 4390   2.319   2.830   0.784
 1458H2O2    H1 4391   2.381   2.876   0.601
 1458H2O2    H2 4392   2.400   2.874   0.807
   3.58057   3.58057   3.58057
